 Gaussian 09, Revision D.01,
 Gaussian 09:  EM64L-G09RevD.01 24-Apr-2013

 ----------------------------------------------------------------------
 #p rb3lyp/6-31g(d,p) scrf=(iefpcm,solvent=water) geom=connectivity emp
 iricaldispersion=gd3
 ----------------------------------------------------------------------

 -------------------
 Title Card Required
 -------------------
 Symbolic Z-matrix:
 Charge = -2 Multiplicity = 1

                         Standard orientation:
 ---------------------------------------------------------------------
 Center     Atomic      Atomic             Coordinates (Angstroms)
 Number     Number       Type             X           Y           Z
 ---------------------------------------------------------------------
      1          6           0       -2.357817    0.547679   -0.190259
      2          6           0       -1.995980    1.787899   -0.899894
      3          6           0       -1.417375   -0.071072    0.547213
      4          6           0       -0.712971    2.158511   -1.048902
      5          1           0       -2.818052    2.354950   -1.324678
      6          6           0       -3.803904    0.058313   -0.262871
      7          6           0       -0.045964    0.534874    0.721363
      8          1           0       -1.651345   -0.972708    1.097329
      9          6           0        0.413753    1.295779   -0.528341
     10          1           0       -0.422208    3.037979   -1.619075
     11          8           0       -4.629197    0.854345   -0.780964
     12          8           0       -4.064285   -1.090640    0.218137
     13          1           0       -0.101064    1.281896    1.528763
     14          8           0        1.557826    2.089556   -0.254119
     15          1           0        0.660866    0.549938   -1.307889
     16          1           0        2.283451    1.429138   -0.056999
     17          6           0        0.802396   -2.428389   -0.037401
     18          6           0        1.472617   -1.331475    0.331141
     19          1           0        1.317983   -3.137571   -0.674370
     20          1           0       -0.220171   -2.635529    0.265463
     21          6           0        2.900682   -1.062160   -0.150581
     22          8           0        0.952439   -0.383676    1.196820
     23          8           0        3.330353    0.138676   -0.054917
     24          8           0        3.537807   -2.032671   -0.625839
     25          8           0       -2.546669   -3.240379    0.853861
     26          1           0       -2.527545   -3.040865    1.797532
     27          1           0       -3.067803   -2.473125    0.499375
     28          8           0        6.031162    0.138134    1.092359
     29          1           0        5.067007    0.239902    1.003384
     30          1           0        6.221116   -0.281894    0.233909
     31          8           0        5.688628   -0.698716   -1.644422
     32          1           0        5.029476   -1.370266   -1.333363
     33          1           0        5.152907    0.089002   -1.457834
     34          8           0        0.223267    3.861880    1.485889
     35          1           0        0.890842    3.341252    0.993013
     36          1           0       -0.583114    3.614773    1.012204
     37          8           0       -6.869105   -0.837601   -0.347842
     38          1           0       -6.377463   -0.045338   -0.642036
     39          1           0       -6.085307   -1.312562   -0.015249
 ---------------------------------------------------------------------

 SCF Done:  E(RB3LYP) =  -1219.71992145     A.U. after   13 cycles

 The electronic state is 1-A.
 Alpha  occ. eigenvalues --  -19.15725 -19.13284 -19.11824 -19.11696 -19.11556
 Alpha  occ. eigenvalues --  -19.10537 -19.10286 -19.09906 -19.09280 -19.08940
 Alpha  occ. eigenvalues --  -19.08694 -10.28157 -10.27045 -10.23907 -10.23521
 Alpha  occ. eigenvalues --  -10.23316 -10.18648 -10.18539 -10.18495 -10.18412
 Alpha  occ. eigenvalues --  -10.17246  -1.04995  -1.02566  -1.01799  -1.00631
 Alpha  occ. eigenvalues --   -0.97624  -0.97523  -0.97172  -0.96051  -0.95285
 Alpha  occ. eigenvalues --   -0.94139  -0.92870  -0.83345  -0.76338  -0.73849
 Alpha  occ. eigenvalues --   -0.71780  -0.63349  -0.60031  -0.59126  -0.55042
 Alpha  occ. eigenvalues --   -0.51720  -0.50896  -0.49722  -0.49041  -0.48801
 Alpha  occ. eigenvalues --   -0.48032  -0.47429  -0.46442  -0.46187  -0.45775
 Alpha  occ. eigenvalues --   -0.44638  -0.43635  -0.42891  -0.42061  -0.40897
 Alpha  occ. eigenvalues --   -0.39997  -0.39874  -0.39620  -0.39172  -0.38070
 Alpha  occ. eigenvalues --   -0.37409  -0.36604  -0.35815  -0.35668  -0.35280
 Alpha  occ. eigenvalues --   -0.35263  -0.34631  -0.32331  -0.30192  -0.29207
 Alpha  occ. eigenvalues --   -0.27981  -0.27886  -0.27813  -0.27200  -0.26694
 Alpha  occ. eigenvalues --   -0.25829  -0.25797  -0.25086  -0.24668  -0.24258
 Alpha  occ. eigenvalues --   -0.23964  -0.23576  -0.22832  -0.20961
 Alpha virt. eigenvalues --   -0.04084  -0.00983   0.03842   0.09268   0.10418
 Alpha virt. eigenvalues --    0.11328   0.11399   0.12384   0.13575   0.14441
 Alpha virt. eigenvalues --    0.15581   0.15991   0.17215   0.17392   0.18259

 Mulliken charges:
               1
     1  C    0.050785
     2  C   -0.089351
     3  C   -0.148240
     4  C   -0.150868
     5  H    0.097426
     6  C    0.542518
     7  C    0.134286
     8  H    0.081079
     9  C    0.131921
    10  H    0.104838
    11  O   -0.620481
    12  O   -0.645295
    13  H    0.106860
    14  O   -0.621120
    15  H    0.103744
    16  H    0.356204
    17  C   -0.302996
    18  C    0.277604
    19  H    0.111117
    20  H    0.125227
    21  C    0.569225
    22  O   -0.562676
    23  O   -0.645516
    24  O   -0.616424
    25  O   -0.684196
    26  H    0.309280
    27  H    0.346891
    28  O   -0.722428
    29  H    0.311687
    30  H    0.293497
    31  O   -0.686624
    32  H    0.327148
    33  H    0.304614
    34  O   -0.694710
    35  H    0.327842
    36  H    0.305509
    37  O   -0.726363
    38  H    0.299712
    39  H    0.298272
 Sum of Mulliken charges =  -2.00000

 Dipole moment (field-independent basis, Debye):
    X=              0.5511    Y=              2.4657    Z=             -0.4721  Tot=              2.5703
 Quadrupole moment (field-independent basis, Debye-Ang):
   XX=           -361.9274   YY=           -170.3580   ZZ=           -137.6072
   XY=             -7.9603   XZ=            -10.9216   YZ=            -13.7058

 Normal termination of Gaussian 09 at Wed Feb  6 11:12:01 2019.
