 Gaussian 09, Revision D.01,
 Gaussian 09:  EM64L-G09RevD.01 24-Apr-2013

 ------------------------------------------------------------------
 #p rb3lyp/6-311+g(2d,2p) geom=connectivity empiricaldispersion=gd3
 ------------------------------------------------------------------

 -------------------
 Title Card Required
 -------------------
 Symbolic Z-matrix:
 Charge = -2 Multiplicity = 1

                         Standard orientation:
 ---------------------------------------------------------------------
 Center     Atomic      Atomic             Coordinates (Angstroms)
 Number     Number       Type             X           Y           Z
 ---------------------------------------------------------------------
      1          6           0       -2.357817    0.547679   -0.190259
      2          6           0       -1.995980    1.787899   -0.899894
      3          6           0       -1.417375   -0.071072    0.547213
      4          6           0       -0.712971    2.158511   -1.048902
      5          1           0       -2.818052    2.354950   -1.324678
      6          6           0       -3.803904    0.058313   -0.262871
      7          6           0       -0.045964    0.534874    0.721363
      8          1           0       -1.651345   -0.972708    1.097329
      9          6           0        0.413753    1.295779   -0.528341
     10          1           0       -0.422208    3.037979   -1.619075
     11          8           0       -4.629197    0.854345   -0.780964
     12          8           0       -4.064285   -1.090640    0.218137
     13          1           0       -0.101064    1.281896    1.528763
     14          8           0        1.557826    2.089556   -0.254119
     15          1           0        0.660866    0.549938   -1.307889
     16          1           0        2.283451    1.429138   -0.056999
     17          6           0        0.802396   -2.428389   -0.037401
     18          6           0        1.472617   -1.331475    0.331141
     19          1           0        1.317983   -3.137571   -0.674370
     20          1           0       -0.220171   -2.635529    0.265463
     21          6           0        2.900682   -1.062160   -0.150581
     22          8           0        0.952439   -0.383676    1.196820
     23          8           0        3.330353    0.138676   -0.054917
     24          8           0        3.537807   -2.032671   -0.625839
     25          8           0       -2.546669   -3.240379    0.853861
     26          1           0       -2.527545   -3.040865    1.797532
     27          1           0       -3.067803   -2.473125    0.499375
     28          8           0        6.031162    0.138134    1.092359
     29          1           0        5.067007    0.239902    1.003384
     30          1           0        6.221116   -0.281894    0.233909
     31          8           0        5.688628   -0.698716   -1.644422
     32          1           0        5.029476   -1.370266   -1.333363
     33          1           0        5.152907    0.089002   -1.457834
     34          8           0        0.223267    3.861880    1.485889
     35          1           0        0.890842    3.341252    0.993013
     36          1           0       -0.583114    3.614773    1.012204
     37          8           0       -6.869105   -0.837601   -0.347842
     38          1           0       -6.377463   -0.045338   -0.642036
     39          1           0       -6.085307   -1.312562   -0.015249
 ---------------------------------------------------------------------

 SCF Done:  E(RB3LYP) =  -1219.97904806     A.U. after   16 cycles

 The electronic state is 1-A.
 Alpha  occ. eigenvalues --  -18.95028 -18.92793 -18.92723 -18.91683 -18.91207
 Alpha  occ. eigenvalues --  -18.90372 -18.89187 -18.89067 -18.88607 -18.87714
 Alpha  occ. eigenvalues --  -18.87586 -10.08037 -10.07071 -10.04607 -10.04315
 Alpha  occ. eigenvalues --  -10.03664  -9.99675  -9.99502  -9.99096  -9.98982
 Alpha  occ. eigenvalues --   -9.97202  -0.87104  -0.84507  -0.83749  -0.83164
 Alpha  occ. eigenvalues --   -0.81236  -0.80238  -0.80142  -0.78775  -0.77700
 Alpha  occ. eigenvalues --   -0.76060  -0.74879  -0.65940  -0.58563  -0.56405
 Alpha  occ. eigenvalues --   -0.54124  -0.45710  -0.42485  -0.41304  -0.37465
 Alpha  occ. eigenvalues --   -0.34309  -0.33355  -0.32493  -0.32258  -0.31695
 Alpha  occ. eigenvalues --   -0.30478  -0.30133  -0.28932  -0.28495  -0.28100
 Alpha  occ. eigenvalues --   -0.27105  -0.26193  -0.25385  -0.24696  -0.23174
 Alpha  occ. eigenvalues --   -0.22237  -0.22004  -0.21922  -0.21203  -0.21006
 Alpha  occ. eigenvalues --   -0.20282  -0.19875  -0.18698  -0.18560  -0.18400
 Alpha  occ. eigenvalues --   -0.18076  -0.17167  -0.15044  -0.13070  -0.12167
 Alpha  occ. eigenvalues --   -0.11405  -0.11233  -0.10836  -0.10011  -0.09972
 Alpha  occ. eigenvalues --   -0.08777  -0.07936  -0.07304  -0.06827  -0.06534
 Alpha  occ. eigenvalues --   -0.06120  -0.05802  -0.05069  -0.03677
 Alpha virt. eigenvalues --    0.12916   0.15967   0.17060   0.18385   0.18942
 Alpha virt. eigenvalues --    0.19677   0.20328   0.20761   0.20968   0.21799
 Alpha virt. eigenvalues --    0.22134   0.22845   0.23619   0.24163   0.24678

 Mulliken charges:
               1
     1  C    0.119901
     2  C   -0.385910
     3  C   -0.369041
     4  C   -0.436218
     5  H    0.114515
     6  C    0.581203
     7  C    0.517559
     8  H    0.088588
     9  C    0.252909
    10  H    0.094402
    11  O   -0.651242
    12  O   -0.777458
    13  H    0.122527
    14  O   -0.634406
    15  H    0.088065
    16  H    0.435665
    17  C   -0.278527
    18  C    0.262837
    19  H    0.098804
    20  H    0.174891
    21  C    0.437564
    22  O   -0.453794
    23  O   -0.786551
    24  O   -0.602535
    25  O   -0.542580
    26  H    0.174978
    27  H    0.384047
    28  O   -0.635379
    29  H    0.321813
    30  H    0.289117
    31  O   -0.577991
    32  H    0.304601
    33  H    0.265345
    34  O   -0.530331
    35  H    0.287776
    36  H    0.257415
    37  O   -0.580482
    38  H    0.280623
    39  H    0.287297
 Sum of Mulliken charges =  -2.00000

 Dipole moment (field-independent basis, Debye):
    X=              0.7549    Y=              2.0049    Z=             -0.1226  Tot=              2.1458
 Quadrupole moment (field-independent basis, Debye-Ang):
   XX=           -368.2000   YY=           -181.1568   ZZ=           -146.2556
   XY=             -8.4277   XZ=             -8.4214   YZ=            -11.7749

 Normal termination of Gaussian 09 at Wed Feb  6 11:14:28 2019.
