 Gaussian 09, Revision D.01,
 Gaussian 09:  EM64L-G09RevD.01 24-Apr-2013

 ----------------------------------------------------------------------
 #p opt freq=noraman rb3lyp/6-31g(d,p) geom=connectivity empiricaldispe
 rsion=gd3
 ----------------------------------------------------------------------

 -------------------
 Title Card Required
 -------------------
 Symbolic Z-matrix:
 Charge = -2 Multiplicity = 1

 SCF Done:  E(RB3LYP) =  -1219.47119890     A.U. after   15 cycles
 SCF Done:  E(RB3LYP) =  -1219.47343608     A.U. after   14 cycles
 SCF Done:  E(RB3LYP) =  -1219.47562804     A.U. after   15 cycles
 SCF Done:  E(RB3LYP) =  -1219.47467955     A.U. after   15 cycles
 SCF Done:  E(RB3LYP) =  -1219.47802212     A.U. after   12 cycles
 SCF Done:  E(RB3LYP) =  -1219.47925780     A.U. after   13 cycles
 SCF Done:  E(RB3LYP) =  -1219.47892453     A.U. after   13 cycles
 SCF Done:  E(RB3LYP) =  -1219.48011730     A.U. after   10 cycles
 SCF Done:  E(RB3LYP) =  -1219.48045672     A.U. after   13 cycles
 SCF Done:  E(RB3LYP) =  -1219.48131830     A.U. after   12 cycles
 SCF Done:  E(RB3LYP) =  -1219.50442002     A.U. after    8 cycles
 SCF Done:  E(RB3LYP) =  -1219.50442021     A.U. after    7 cycles
 SCF Done:  E(RB3LYP) =  -1219.50442034     A.U. after    7 cycles
 SCF Done:  E(RB3LYP) =  -1219.50442044     A.U. after    7 cycles
 SCF Done:  E(RB3LYP) =  -1219.50442053     A.U. after    6 cycles
 SCF Done:  E(RB3LYP) =  -1219.50442064     A.U. after    6 cycles
 SCF Done:  E(RB3LYP) =  -1219.50442076     A.U. after    6 cycles
 SCF Done:  E(RB3LYP) =  -1219.50442088     A.U. after    7 cycles
 SCF Done:  E(RB3LYP) =  -1219.50442095     A.U. after    6 cycles
 Optimization completed.
    -- Stationary point found.
 Normal termination of Gaussian 09 at Wed Feb  6 09:35:03 2019.

 ----------------------------------------------------------------------
 #P Geom=AllCheck Guess=TCheck SCRF=Check GenChk RB3LYP/6-31G(d,p) Freq
 ----------------------------------------------------------------------

 Structure from the checkpoint file:  "ChorA_frwd.chk"
 -------------------
 Title Card Required
 -------------------
 Charge = -2 Multiplicity = 1

                         Standard orientation:
 ---------------------------------------------------------------------
 Center     Atomic      Atomic             Coordinates (Angstroms)
 Number     Number       Type             X           Y           Z
 ---------------------------------------------------------------------
      1          6           0       -2.357817    0.547679   -0.190259
      2          6           0       -1.995980    1.787899   -0.899894
      3          6           0       -1.417375   -0.071072    0.547213
      4          6           0       -0.712971    2.158511   -1.048902
      5          1           0       -2.818052    2.354950   -1.324678
      6          6           0       -3.803904    0.058313   -0.262871
      7          6           0       -0.045964    0.534874    0.721363
      8          1           0       -1.651345   -0.972708    1.097329
      9          6           0        0.413753    1.295779   -0.528341
     10          1           0       -0.422208    3.037979   -1.619075
     11          8           0       -4.629197    0.854345   -0.780964
     12          8           0       -4.064285   -1.090640    0.218137
     13          1           0       -0.101064    1.281896    1.528763
     14          8           0        1.557826    2.089556   -0.254119
     15          1           0        0.660866    0.549938   -1.307889
     16          1           0        2.283451    1.429138   -0.056999
     17          6           0        0.802396   -2.428389   -0.037401
     18          6           0        1.472617   -1.331475    0.331141
     19          1           0        1.317983   -3.137571   -0.674370
     20          1           0       -0.220171   -2.635529    0.265463
     21          6           0        2.900682   -1.062160   -0.150581
     22          8           0        0.952439   -0.383676    1.196820
     23          8           0        3.330353    0.138676   -0.054917
     24          8           0        3.537807   -2.032671   -0.625839
     25          8           0       -2.546669   -3.240379    0.853861
     26          1           0       -2.527545   -3.040865    1.797532
     27          1           0       -3.067803   -2.473125    0.499375
     28          8           0        6.031162    0.138134    1.092359
     29          1           0        5.067007    0.239902    1.003384
     30          1           0        6.221116   -0.281894    0.233909
     31          8           0        5.688628   -0.698716   -1.644422
     32          1           0        5.029476   -1.370266   -1.333363
     33          1           0        5.152907    0.089002   -1.457834
     34          8           0        0.223267    3.861880    1.485889
     35          1           0        0.890842    3.341252    0.993013
     36          1           0       -0.583114    3.614773    1.012204
     37          8           0       -6.869105   -0.837601   -0.347842
     38          1           0       -6.377463   -0.045338   -0.642036
     39          1           0       -6.085307   -1.312562   -0.015249
 ---------------------------------------------------------------------

 SCF Done:  E(RB3LYP) =  -1219.50442095     A.U. after    2 cycles

 The electronic state is 1-A.
 Alpha  occ. eigenvalues --  -18.95875 -18.93710 -18.92734 -18.92296 -18.91643
 Alpha  occ. eigenvalues --  -18.90162 -18.89624 -18.89431 -18.88389 -18.88232
 Alpha  occ. eigenvalues --  -18.88105 -10.07768 -10.06602 -10.04476 -10.04346
 Alpha  occ. eigenvalues --  -10.03425  -9.99978  -9.99831  -9.99003  -9.98907
 Alpha  occ. eigenvalues --   -9.97425  -0.85062  -0.82253  -0.81207  -0.81070
 Alpha  occ. eigenvalues --   -0.78440  -0.77912  -0.77493  -0.75477  -0.74230
 Alpha  occ. eigenvalues --   -0.73695  -0.72292  -0.64126  -0.56703  -0.54598
 Alpha  occ. eigenvalues --   -0.52310  -0.43874  -0.40639  -0.39323  -0.35475
 Alpha  occ. eigenvalues --   -0.32256  -0.31318  -0.30237  -0.29766  -0.29507
 Alpha  occ. eigenvalues --   -0.28034  -0.27012  -0.26855  -0.26067  -0.25293
 Alpha  occ. eigenvalues --   -0.24662  -0.24114  -0.23162  -0.22550  -0.20765
 Alpha  occ. eigenvalues --   -0.20134  -0.19559  -0.19426  -0.18757  -0.18397
 Alpha  occ. eigenvalues --   -0.17347  -0.17168  -0.16221  -0.15713  -0.15459
 Alpha  occ. eigenvalues --   -0.14639  -0.14364  -0.12965  -0.10922  -0.09408
 Alpha  occ. eigenvalues --   -0.08638  -0.08425  -0.07717  -0.07566  -0.05949
 Alpha  occ. eigenvalues --   -0.05424  -0.04914  -0.04666  -0.04339  -0.03903
 Alpha  occ. eigenvalues --   -0.03533  -0.03172  -0.02321  -0.01629
 Alpha virt. eigenvalues --    0.15257   0.18991   0.23390   0.27441   0.29394
 Alpha virt. eigenvalues --    0.30652   0.30844   0.31506   0.32820   0.33638
 Alpha virt. eigenvalues --    0.34937   0.36093   0.36341   0.36535   0.37261

 Mulliken charges:
               1
     1  C    0.052520
     2  C   -0.082101
     3  C   -0.136888
     4  C   -0.145842
     5  H    0.081869
     6  C    0.558165
     7  C    0.137191
     8  H    0.065413
     9  C    0.140564
    10  H    0.063128
    11  O   -0.609659
    12  O   -0.641245
    13  H    0.100115
    14  O   -0.617155
    15  H    0.094152
    16  H    0.361253
    17  C   -0.300271
    18  C    0.279085
    19  H    0.091106
    20  H    0.129975
    21  C    0.574599
    22  O   -0.552460
    23  O   -0.643795
    24  O   -0.604773
    25  O   -0.661393
    26  H    0.275235
    27  H    0.354235
    28  O   -0.714156
    29  H    0.311611
    30  H    0.287343
    31  O   -0.682386
    32  H    0.329344
    33  H    0.294508
    34  O   -0.682144
    35  H    0.328870
    36  H    0.288440
    37  O   -0.720166
    38  H    0.299092
    39  H    0.296620
 Sum of Mulliken charges =  -2.00000

 Dipole moment (field-independent basis, Debye):
    X=              0.4976    Y=              1.9729    Z=             -0.3191  Tot=              2.0596
 Quadrupole moment (field-independent basis, Debye-Ang):
   XX=           -358.0139   YY=           -172.3781   ZZ=           -138.4999
   XY=             -7.6366   XZ=             -9.6022   YZ=            -12.1688

  Exact polarizability: 207.257   4.641 163.887   3.258  -6.792 105.142
 Approx polarizability: 263.382   8.905 258.540  12.315 -13.197 170.568

                      1                      2                      3
                      A                      A                      A
 Frequencies --     15.5931                23.4714                35.0905
 Red. masses --      7.2958                 8.6256                 8.7604
 Frc consts  --      0.0010                 0.0028                 0.0064
 IR Inten    --      2.8863                 1.2616                 1.1423

                      4                      5                      6
                      A                      A                      A
 Frequencies --     39.1525                52.5277                58.3509
 Red. masses --      8.2659                 7.8083                 7.9213
 Frc consts  --      0.0075                 0.0127                 0.0159
 IR Inten    --      1.2176                 4.6703                 2.2049

                      7                      8                      9
                      A                      A                      A
 Frequencies --     62.2706                67.8374                75.7594
 Red. masses --      7.6795                 7.7271                 7.7440
 Frc consts  --      0.0175                 0.0210                 0.0262
 IR Inten    --      0.2847                 4.7119                 2.1766

                     10                     11                     12
                      A                      A                      A
 Frequencies --     78.1093                89.6340                98.7047
 Red. masses --      7.4477                 7.5030                 5.4879
 Frc consts  --      0.0268                 0.0355                 0.0315
 IR Inten    --      2.6513                 0.0651                 0.2894

                     13                     14                     15
                      A                      A                      A
 Frequencies --    112.9342               118.7171               130.6134
 Red. masses --      6.3776                 7.1884                 7.1336
 Frc consts  --      0.0479                 0.0597                 0.0717
 IR Inten    --      4.6316                 7.9293                 3.0808

                     16                     17                     18
                      A                      A                      A
 Frequencies --    148.6430               173.4695               188.5243
 Red. masses --      4.4952                 5.3092                 3.3823
 Frc consts  --      0.0585                 0.0941                 0.0708
 IR Inten    --      5.3413                31.7161                12.6306

                     19                     20                     21
                      A                      A                      A
 Frequencies --    197.6923               211.1736               216.7000
 Red. masses --      5.5303                 3.1657                 5.2033
 Frc consts  --      0.1273                 0.0832                 0.1440
 IR Inten    --      9.1894                26.7826                 4.8306

                     22                     23                     24
                      A                      A                      A
 Frequencies --    221.9332               238.2380               252.6755
 Red. masses --      2.9627                 3.7177                 5.6865
 Frc consts  --      0.0860                 0.1243                 0.2139
 IR Inten    --     14.1734                46.7857                 8.8660

                     25                     26                     27
                      A                      A                      A
 Frequencies --    272.8693               293.2911               334.1371
 Red. masses --      5.0622                 4.3917                 6.0948
 Frc consts  --      0.2221                 0.2226                 0.4009
 IR Inten    --      4.1267                 3.9533                 2.3661

                     28                     29                     30
                      A                      A                      A
 Frequencies --    349.5194               358.0052               374.2056
 Red. masses --      2.7424                 1.4736                 4.4992
 Frc consts  --      0.1974                 0.1113                 0.3712
 IR Inten    --     34.9872                30.0469                 2.9154

                     31                     32                     33
                      A                      A                      A
 Frequencies --    396.2793               409.3183               413.0755
 Red. masses --      1.0598                 1.2293                 1.0716
 Frc consts  --      0.0981                 0.1213                 0.1077
 IR Inten    --     26.3741               107.5353                 1.4315

                     34                     35                     36
                      A                      A                      A
 Frequencies --    419.1076               427.4128               443.1370
 Red. masses --      2.4819                 1.0783                 3.3599
 Frc consts  --      0.2569                 0.1161                 0.3887
 IR Inten    --      9.1800                43.8398                10.5246

                     37                     38                     39
                      A                      A                      A
 Frequencies --    463.6225               471.1104               473.5413
 Red. masses --      1.3098                 1.5027                 1.1227
 Frc consts  --      0.1659                 0.1965                 0.1483
 IR Inten    --     42.1018                96.5184                24.8301

                     40                     41                     42
                      A                      A                      A
 Frequencies --    491.1637               499.1699               536.5240
 Red. masses --      2.0195                 2.4395                 6.3021
 Frc consts  --      0.2870                 0.3581                 1.0688
 IR Inten    --     16.7933                 7.3165                20.2522

                     43                     44                     45
                      A                      A                      A
 Frequencies --    544.6630               569.1759               600.1360
 Red. masses --      1.0981                 4.5420                 5.0537
 Frc consts  --      0.1919                 0.8669                 1.0724
 IR Inten    --     51.2262                 2.0326                12.1382

                     46                     47                     48
                      A                      A                      A
 Frequencies --    616.6801               638.3049               654.7563
 Red. masses --      6.2400                 4.6696                 3.7495
 Frc consts  --      1.3981                 1.1209                 0.9471
 IR Inten    --      4.3936                 3.3906                53.5924

                     49                     50                     51
                      A                      A                      A
 Frequencies --    706.8288               723.9045               762.0519
 Red. masses --      1.1203                 1.6636                 1.2360
 Frc consts  --      0.3298                 0.5137                 0.4229
 IR Inten    --     95.4607                33.0847               208.3463

                     52                     53                     54
                      A                      A                      A
 Frequencies --    776.4775               782.5181               793.1360
 Red. masses --      1.0603                 2.3989                 1.9142
 Frc consts  --      0.3767                 0.8655                 0.7095
 IR Inten    --    106.7175                24.8503                20.4892

                     55                     56                     57
                      A                      A                      A
 Frequencies --    808.8482               826.8370               844.8956
 Red. masses --      2.7604                 2.9365                 3.0926
 Frc consts  --      1.0640                 1.1828                 1.3007
 IR Inten    --     22.6776                 1.4398                19.1803

                     58                     59                     60
                      A                      A                      A
 Frequencies --    867.4798               887.0317               897.8794
 Red. masses --      1.4830                 1.2273                 1.7873
 Frc consts  --      0.6575                 0.5689                 0.8489
 IR Inten    --    139.8313               159.3651                57.6889

                     61                     62                     63
                      A                      A                      A
 Frequencies --    902.7421               916.1121               949.2267
 Red. masses --      1.2889                 2.0417                 2.2859
 Frc consts  --      0.6188                 1.0096                 1.2135
 IR Inten    --    130.9325                50.8640                32.2061

                     64                     65                     66
                      A                      A                      A
 Frequencies --    973.3587               999.8117              1010.6853
 Red. masses --      1.3129                 1.7982                 1.6571
 Frc consts  --      0.7329                 1.0590                 0.9973
 IR Inten    --     42.7826                 5.7294                 1.8521

                     67                     68                     69
                      A                      A                      A
 Frequencies --   1041.3694              1071.0783              1113.1584
 Red. masses --      3.2687                 2.5866                 4.1765
 Frc consts  --      2.0885                 1.7483                 3.0491
 IR Inten    --     42.4513                15.0527               100.6127

                     70                     71                     72
                      A                      A                      A
 Frequencies --   1122.0147              1150.4640              1195.5422
 Red. masses --      5.1674                 1.8623                 1.4586
 Frc consts  --      3.8328                 1.4523                 1.2283
 IR Inten    --     66.2577                13.2108                 9.1724

                     73                     74                     75
                      A                      A                      A
 Frequencies --   1231.2487              1276.4352              1296.2431
 Red. masses --      3.2147                 1.3746                 1.3913
 Frc consts  --      2.8713                 1.3195                 1.3773
 IR Inten    --    197.3939                28.9583                31.4723

                     76                     77                     78
                      A                      A                      A
 Frequencies --   1324.9099              1367.0149              1392.9457
 Red. masses --      1.2608                 1.5027                 2.0533
 Frc consts  --      1.3040                 1.6546                 2.3473
 IR Inten    --     18.5737                10.4459               264.9719

                     79                     80                     81
                      A                      A                      A
 Frequencies --   1395.5310              1405.5491              1421.0341
 Red. masses --      5.2882                 2.8833                 1.7188
 Frc consts  --      6.0679                 3.3561                 2.0450
 IR Inten    --    162.9333               272.0132                 9.7945

                     82                     83                     84
                      A                      A                      A
 Frequencies --   1438.8247              1552.7356              1649.3738
 Red. masses --      1.3545                 1.2546                 9.0532
 Frc consts  --      1.6521                 1.7822                14.5108
 IR Inten    --     89.4565               112.6439                36.1797

                     85                     86                     87
                      A                      A                      A
 Frequencies --   1661.1902              1671.5032              1702.8344
 Red. masses --      7.6432                 8.2201                 4.6785
 Frc consts  --     12.4269                13.5313                 7.9928
 IR Inten    --    468.7507               404.9100                31.4284

                     88                     89                     90
                      A                      A                      A
 Frequencies --   1708.9107              1719.6092              1745.7929
 Red. masses --      2.7750                 1.5078                 1.0833
 Frc consts  --      4.7748                 2.6270                 1.9454
 IR Inten    --     64.9857                48.4077               158.5194

                     91                     92                     93
                      A                      A                      A
 Frequencies --   1747.1635              1771.4551              1775.3210
 Red. masses --      1.0958                 1.0873                 1.0849
 Frc consts  --      1.9708                 2.0103                 2.0146
 IR Inten    --    211.8732               766.1364               154.3907

                     94                     95                     96
                      A                      A                      A
 Frequencies --   2932.6099              3002.5140              3157.1124
 Red. masses --      1.0796                 1.0823                 1.0616
 Frc consts  --      5.4706                 5.7488                 6.2344
 IR Inten    --     25.2439                16.6870                 7.4189

                     97                     98                     99
                      A                      A                      A
 Frequencies --   3163.0830              3165.8207              3208.5756
 Red. masses --      1.0723                 1.0878                 1.0937
 Frc consts  --      6.3208                 6.4236                 6.6339
 IR Inten    --   1338.7723                37.7987                17.2915

                    100                    101                    102
                      A                      A                      A
 Frequencies --   3250.3809              3262.4627              3338.7783
 Red. masses --      1.0899                 1.1155                 1.0647
 Frc consts  --      6.7841                 6.9957                 6.9927
 IR Inten    --      3.8483                10.2930               786.2218

                    103                    104                    105
                      A                      A                      A
 Frequencies --   3393.6689              3594.6336              3645.4718
 Red. masses --      1.0645                 1.0596                 1.0660
 Frc consts  --      7.2230                 8.0666                 8.3465
 IR Inten    --    613.6522               258.8440               209.8250

                    106                    107                    108
                      A                      A                      A
 Frequencies --   3682.7347              3701.9823              3721.9047
 Red. masses --      1.0515                 1.0577                 1.0741
 Frc consts  --      8.4025                 8.5401                 8.7667
 IR Inten    --    183.4835               208.5131               202.0648

                    109                    110                    111
                      A                      A                      A
 Frequencies --   3783.5117              3821.0698              3860.2417
 Red. masses --      1.0622                 1.0667                 1.0652
 Frc consts  --      8.9585                 9.1761                 9.3524
 IR Inten    --     52.5095                18.2303                16.6867

 - Thermochemistry -
 -------------------
 Temperature   298.150 Kelvin.  Pressure   1.00000 Atm.
 Atom     1 has atomic number  6 and mass  12.00000

 Molecular mass:   314.08491 amu.
 Principal axes and moments of inertia in atomic units:
                           1         2         3
     Eigenvalues --  3981.15061********************
           X            0.99999   0.00395  -0.00253
           Y           -0.00397   0.99997  -0.00624
           Z            0.00250   0.00625   0.99998
 This molecule is an asymmetric top.
 Rotational symmetry number  1.
 Warning -- assumption of classical behavior for rotation
           may cause significant error
 Rotational temperatures (Kelvin)      0.02176     0.00623     0.00529
 Rotational constants (GHZ):           0.45332     0.12976     0.11021
 Zero-point vibrational energy     777708.2 (Joules/Mol)
                                  185.87672 (Kcal/Mol)
 Warning -- explicit consideration of  46 degrees of freedom as
           vibrations may cause significant error
 Vibrational temperatures:     22.43    33.77    50.49    56.33    75.58
          (Kelvin)             83.95    89.59    97.60   109.00   112.38
                              128.96   142.01   162.49   170.81   187.92
                              213.86   249.58   271.24   284.43   303.83
                              311.78   319.31   342.77   363.54   392.60
                              421.98   480.75   502.88   515.09   538.40
                              570.16   588.92   594.32   603.00   614.95
                              637.57   667.05   677.82   681.32   706.67
                              718.19   771.94   783.65   818.92   863.46
                              887.26   918.38   942.05  1016.97  1041.54
                             1096.42  1117.18  1125.87  1141.14  1163.75
                             1189.63  1215.61  1248.11  1276.24  1291.85
                             1298.84  1318.08  1365.72  1400.44  1438.50
                             1454.15  1498.30  1541.04  1601.58  1614.33
                             1655.26  1720.12  1771.49  1836.50  1865.00
                             1906.25  1966.83  2004.14  2007.86  2022.27
                             2044.55  2070.15  2234.04  2373.08  2390.08
                             2404.92  2450.00  2458.74  2474.13  2511.80
                             2513.78  2548.73  2554.29  4219.37  4319.94
                             4542.37  4550.97  4554.90  4616.42  4676.57
                             4693.95  4803.75  4882.73  5171.87  5245.01
                             5298.63  5326.32  5354.98  5443.62  5497.66
                             5554.02

 Zero-point correction=                           0.296213 (Hartree/Particle)
 Thermal correction to Energy=                    0.323827
 Thermal correction to Enthalpy=                  0.324772
 Thermal correction to Gibbs Free Energy=         0.235746
 Sum of electronic and zero-point Energies=          -1219.208208
 Sum of electronic and thermal Energies=             -1219.180594
 Sum of electronic and thermal Enthalpies=           -1219.179649
 Sum of electronic and thermal Free Energies=        -1219.268675

                     E (Thermal)             CV                S
                      KCal/Mol        Cal/Mol-Kelvin    Cal/Mol-Kelvin
 Total                  203.205             97.531            187.371
 Electronic               0.000              0.000              0.000
 Translational            0.889              2.981             43.130
 Rotational               0.889              2.981             35.160
 Vibrational            201.427             91.570            109.081
 Vibration     1          0.593              1.986              7.129
 Vibration     2          0.593              1.985              6.316
 Vibration     3          0.594              1.982              5.519
 Vibration     4          0.594              1.981              5.302
 Vibration     5          0.596              1.977              4.720
 Vibration     6          0.596              1.974              4.512
 Vibration     7          0.597              1.972              4.384
 Vibration     8          0.598              1.970              4.215
 Vibration     9          0.599              1.965              3.998
 Vibration    10          0.599              1.964              3.938
 Vibration    11          0.602              1.957              3.668
 Vibration    12          0.604              1.950              3.480
 Vibration    13          0.607              1.939              3.218
 Vibration    14          0.609              1.934              3.121
 Vibration    15          0.612              1.923              2.937
 Vibration    16          0.618              1.904              2.690
 Vibration    17          0.627              1.875              2.398
 Vibration    18          0.633              1.856              2.242
 Vibration    19          0.637              1.843              2.154
 Vibration    20          0.643              1.824              2.034
 Vibration    21          0.646              1.816              1.986
 Vibration    22          0.648              1.808              1.943
 Vibration    23          0.656              1.782              1.816
 Vibration    24          0.664              1.758              1.712
 Vibration    25          0.676              1.723              1.578
 Vibration    26          0.688              1.686              1.455
 Vibration    27          0.716              1.607              1.240
 Vibration    28          0.727              1.576              1.168
 Vibration    29          0.733              1.559              1.131
 Vibration    30          0.745              1.525              1.063
 Vibration    31          0.763              1.478              0.976
 Vibration    32          0.774              1.450              0.929
 Vibration    33          0.777              1.442              0.916
 Vibration    34          0.782              1.429              0.895
 Vibration    35          0.789              1.411              0.867
 Vibration    36          0.803              1.376              0.817
 Vibration    37          0.821              1.331              0.756
 Vibration    38          0.828              1.314              0.734
 Vibration    39          0.830              1.309              0.728
 Vibration    40          0.847              1.270              0.681
 Vibration    41          0.855              1.252              0.660
 Vibration    42          0.892              1.169              0.573
 Vibration    43          0.900              1.151              0.555
 Vibration    44          0.925              1.098              0.506
 Vibration    45          0.958              1.032              0.449
 Vibration    46          0.976              0.997              0.422

 Normal termination of Gaussian 09 at Wed Feb  6 09:38:35 2019.
