 Gaussian 09, Revision D.01,
 Gaussian 09:  EM64L-G09RevD.01 24-Apr-2013

 ----------------------------------------------------------------------
 # opt=(calcfc,ts,noeigentest) freq=noraman rb3lyp/6-31g(d,p) geom=conn
 ectivity empiricaldispersion=gd3
 ----------------------------------------------------------------------

 -------------------
 Title Card Required
 -------------------
 Symbolic Z-matrix:
 Charge = -2 Multiplicity = 1

 SCF Done:  E(RB3LYP) =  -1219.44412480     A.U. after   15 cycles
 SCF Done:  E(RB3LYP) =  -1219.44860401     A.U. after   13 cycles
 SCF Done:  E(RB3LYP) =  -1219.44918123     A.U. after   13 cycles
 SCF Done:  E(RB3LYP) =  -1219.44927532     A.U. after   12 cycles
 SCF Done:  E(RB3LYP) =  -1219.44896397     A.U. after   13 cycles
 SCF Done:  E(RB3LYP) =  -1219.44877084     A.U. after   13 cycles
 SCF Done:  E(RB3LYP) =  -1219.44917686     A.U. after   12 cycles
 SCF Done:  E(RB3LYP) =  -1219.44923846     A.U. after   12 cycles
 SCF Done:  E(RB3LYP) =  -1219.44922159     A.U. after   13 cycles
 SCF Done:  E(RB3LYP) =  -1219.44929411     A.U. after   12 cycles
 SCF Done:  E(RB3LYP) =  -1219.44928761     A.U. after   12 cycles
 SCF Done:  E(RB3LYP) =  -1219.44930030     A.U. after   11 cycles
 SCF Done:  E(RB3LYP) =  -1219.44930032     A.U. after    8 cycles
 SCF Done:  E(RB3LYP) =  -1219.44930066     A.U. after    8 cycles
 Optimization completed.
    -- Stationary point found.
 Normal termination of Gaussian 09 at Wed Feb  6 07:43:31 2019.

 ----------------------------------------------------------------------
 #N Geom=AllCheck Guess=TCheck SCRF=Check GenChk RB3LYP/6-31G(d,p) Freq
 ----------------------------------------------------------------------

 Structure from the checkpoint file:  "chorA_TS.chk"
 -------------------
 Title Card Required
 -------------------
 Charge = -2 Multiplicity = 1

                         Standard orientation:
 ---------------------------------------------------------------------
 Center     Atomic      Atomic             Coordinates (Angstroms)
 Number     Number       Type             X           Y           Z
 ---------------------------------------------------------------------
      1          6           0       -1.520228    0.126858   -0.463007
      2          6           0       -0.640656    0.344212   -1.611685
      3          6           0       -1.403791    0.986427    0.627699
      4          6           0        0.377422    1.219842   -1.568663
      5          1           0       -0.873935   -0.230128   -2.501640
      6          6           0       -2.772787   -0.744189   -0.603246
      7          6           0       -0.208342    1.663855    0.830122
      8          1           0       -2.131771    0.926375    1.425930
      9          6           0        0.753154    1.933570   -0.308025
     10          1           0        1.019939    1.391314   -2.427327
     11          8           0       -3.085375   -1.081702   -1.772223
     12          8           0       -3.382225   -1.023472    0.475721
     13          1           0       -0.092096    2.305696    1.698032
     14          8           0        0.806257    3.374662   -0.595444
     15          1           0        1.754914    1.597413   -0.002994
     16          1           0        1.338784    3.765761    0.110625
     17          6           0       -0.118664   -1.775643    0.612545
     18          6           0        0.909528   -0.900635    0.922181
     19          1           0        0.055638   -2.542318   -0.131849
     20          1           0       -1.015616   -1.830824    1.209850
     21          6           0        2.251202   -1.011558    0.144676
     22          8           0        0.752408    0.062763    1.772695
     23          8           0        3.033365   -0.012439    0.192116
     24          8           0        2.455722   -2.103946   -0.448240
     25          8           0       -2.223109   -0.803006    3.103632
     26          1           0       -1.320751   -0.546298    2.858507
     27          1           0       -2.666826   -0.910019    2.234036
     28          8           0        5.728288   -0.752478    0.926100
     29          1           0        4.815148   -0.410675    0.967722
     30          1           0        5.677680   -1.191657    0.057428
     31          8           0        4.759356   -1.373514   -1.719368
     32          1           0        3.991859   -1.880516   -1.349664
     33          1           0        4.465578   -0.501696   -1.403386
     34          8           0       -1.835198    4.297637   -0.029063
     35          1           0       -0.942558    4.087440   -0.362533
     36          1           0       -2.211265    3.412153    0.069506
     37          8           0       -5.483434   -2.381190   -0.937142
     38          1           0       -4.801727   -2.067657   -1.562673
     39          1           0       -5.032462   -2.057321   -0.135405
 ---------------------------------------------------------------------

 SCF Done:  E(RB3LYP) =  -1219.44930066     A.U. after    1 cycles

 The electronic state is 1-A.
 Alpha  occ. eigenvalues --  -18.98627 -18.93420 -18.92929 -18.90483 -18.90194
 Alpha  occ. eigenvalues --  -18.88635 -18.87963 -18.87804 -18.87738 -18.87553
 Alpha  occ. eigenvalues --  -18.87514 -10.06246 -10.05315 -10.04973 -10.03151
 Alpha  occ. eigenvalues --  -10.02041 -10.01072  -9.99479  -9.99382  -9.98539
 Alpha  occ. eigenvalues --   -9.96940  -0.84711  -0.81089  -0.80817  -0.79347
 Alpha  occ. eigenvalues --   -0.78444  -0.76157  -0.76002  -0.74396  -0.73732
 Alpha  occ. eigenvalues --   -0.72056  -0.71475  -0.64871  -0.55817  -0.54747
 Alpha  occ. eigenvalues --   -0.51050  -0.43368  -0.40724  -0.37673  -0.33966
 Alpha  occ. eigenvalues --   -0.33475  -0.31471  -0.29707  -0.28170  -0.27273
 Alpha  occ. eigenvalues --   -0.26374  -0.26253  -0.25617  -0.24521  -0.24275
 Alpha  occ. eigenvalues --   -0.23678  -0.23082  -0.22633  -0.22088  -0.21001
 Alpha  occ. eigenvalues --   -0.19491  -0.18952  -0.18504  -0.18095  -0.17440
 Alpha  occ. eigenvalues --   -0.17144  -0.16480  -0.15847  -0.15364  -0.14096
 Alpha  occ. eigenvalues --   -0.13828  -0.13724  -0.13359  -0.11591  -0.09917
 Alpha  occ. eigenvalues --   -0.09409  -0.07222  -0.06653  -0.06354  -0.05019
 Alpha  occ. eigenvalues --   -0.04498  -0.04146  -0.03384  -0.03141  -0.02779
 Alpha  occ. eigenvalues --   -0.02351  -0.01856  -0.00608  -0.00193
 Alpha virt. eigenvalues --    0.11832   0.19415   0.22050   0.23511   0.25987
 Alpha virt. eigenvalues --    0.29271   0.30569   0.32660   0.33297   0.33771
 Alpha virt. eigenvalues --    0.34407   0.35300   0.36645   0.37514   0.38144

 Mulliken charges:
               1
     1  C    0.006310
     2  C   -0.038082
     3  C   -0.106496
     4  C   -0.083138
     5  H    0.090464
     6  C    0.574635
     7  C   -0.023000
     8  H    0.095839
     9  C    0.069283
    10  H    0.066345
    11  O   -0.606562
    12  O   -0.628520
    13  H    0.077777
    14  O   -0.563670
    15  H    0.180531
    16  H    0.297796
    17  C   -0.280018
    18  C    0.341044
    19  H    0.105929
    20  H    0.100931
    21  C    0.558129
    22  O   -0.550879
    23  O   -0.627830
    24  O   -0.610679
    25  O   -0.704043
    26  H    0.308004
    27  H    0.345604
    28  O   -0.721423
    29  H    0.311862
    30  H    0.285681
    31  O   -0.686636
    32  H    0.323248
    33  H    0.291684
    34  O   -0.692131
    35  H    0.316747
    36  H    0.296852
    37  O   -0.719355
    38  H    0.299049
    39  H    0.298718
 Sum of Mulliken charges =  -2.00000

 Dipole moment (field-independent basis, Debye):
    X=              1.3569    Y=              7.0305    Z=             -0.3330  Tot=              7.1680
 Quadrupole moment (field-independent basis, Debye-Ang):
   XX=           -296.6566   YY=           -172.8565   ZZ=           -158.1904
   XY=              1.5836   XZ=             -4.6639   YZ=             -0.9793

  Exact polarizability: 196.143   9.152 176.513   1.645   2.345 144.305
 Approx polarizability: 279.567  17.922 329.741  19.666   0.804 262.082

 ******    1 imaginary frequencies (negative Signs) ******

                      1                      2                      3
                      A                      A                      A
 Frequencies --   -293.5389                19.3996                25.1329
 Red. masses --      7.3074                 8.3214                 7.9112
 Frc consts  --      0.3710                 0.0018                 0.0029
 IR Inten    --     14.5230                 2.0143                 2.5987

                      4                      5                      6
                      A                      A                      A
 Frequencies --     26.7007                33.7255                42.1405
 Red. masses --      8.2381                 8.2183                 7.1254
 Frc consts  --      0.0035                 0.0055                 0.0075
 IR Inten    --      2.4538                 1.3571                 1.1239

                      7                      8                      9
                      A                      A                      A
 Frequencies --     63.6180                73.1757                74.7664
 Red. masses --      7.6885                 7.8567                 8.2950
 Frc consts  --      0.0183                 0.0248                 0.0273
 IR Inten    --      3.9508                 1.1708                 3.0406

                     10                     11                     12
                      A                      A                      A
 Frequencies --     81.0908                83.1952                87.6099
 Red. masses --      8.6924                 8.3014                 9.5857
 Frc consts  --      0.0337                 0.0339                 0.0433
 IR Inten    --      0.6022                 0.2019                 1.5079

                     13                     14                     15
                      A                      A                      A
 Frequencies --     97.7222               105.1896               122.9326
 Red. masses --      6.4782                 6.2514                 7.2919
 Frc consts  --      0.0364                 0.0408                 0.0649
 IR Inten    --      1.0706                 4.9235                 1.3546

                     16                     17                     18
                      A                      A                      A
 Frequencies --    139.5588               168.8054               173.7609
 Red. masses --      6.6810                 6.1399                 7.5797
 Frc consts  --      0.0767                 0.1031                 0.1348
 IR Inten    --      1.0041                 0.7912                 4.6281

                     19                     20                     21
                      A                      A                      A
 Frequencies --    178.5664               199.1888               204.9102
 Red. masses --      6.4784                 6.1059                 5.0614
 Frc consts  --      0.1217                 0.1427                 0.1252
 IR Inten    --      2.6826                 1.1234                 9.2316

                     22                     23                     24
                      A                      A                      A
 Frequencies --    214.4373               227.7425               237.6000
 Red. masses --      4.4429                 6.0898                 5.1620
 Frc consts  --      0.1204                 0.1861                 0.1717
 IR Inten    --     12.7581                 6.4325                 1.6927

                     25                     26                     27
                      A                      A                      A
 Frequencies --    249.2865               259.3112               299.0072
 Red. masses --      5.7412                 3.7381                 1.3872
 Frc consts  --      0.2102                 0.1481                 0.0731
 IR Inten    --     18.3962                 7.8625                52.8918

                     28                     29                     30
                      A                      A                      A
 Frequencies --    336.3271               341.1891               357.0884
 Red. masses --      3.7850                 2.1193                 1.6892
 Frc consts  --      0.2523                 0.1454                 0.1269
 IR Inten    --     16.4911                56.2003                78.8922

                     31                     32                     33
                      A                      A                      A
 Frequencies --    362.5249               410.0560               412.9418
 Red. masses --      5.9464                 1.1613                 1.0419
 Frc consts  --      0.4604                 0.1151                 0.1047
 IR Inten    --      6.9803                77.8868                 3.7677

                     34                     35                     36
                      A                      A                      A
 Frequencies --    422.3599               431.2030               449.3917
 Red. masses --      1.1260                 2.7747                 3.8770
 Frc consts  --      0.1183                 0.3040                 0.4613
 IR Inten    --     11.1011                21.6693                24.2748

                     37                     38                     39
                      A                      A                      A
 Frequencies --    452.9614               459.1613               474.0288
 Red. masses --      1.2233                 1.3353                 1.6716
 Frc consts  --      0.1479                 0.1659                 0.2213
 IR Inten    --     11.1624                66.6306                11.8619

                     40                     41                     42
                      A                      A                      A
 Frequencies --    482.6529               493.8408               530.4708
 Red. masses --      1.8589                 1.9789                 5.1604
 Frc consts  --      0.2551                 0.2844                 0.8556
 IR Inten    --     45.4281                 6.7252                11.1426

                     43                     44                     45
                      A                      A                      A
 Frequencies --    572.3112               578.4535               598.5389
 Red. masses --      1.5466                 1.1579                 2.4347
 Frc consts  --      0.2985                 0.2283                 0.5139
 IR Inten    --     11.0681                31.0988                68.8714

                     46                     47                     48
                      A                      A                      A
 Frequencies --    606.6916               615.4147               629.1149
 Red. masses --      3.5743                 2.4544                 1.4116
 Frc consts  --      0.7751                 0.5477                 0.3292
 IR Inten    --      9.2240                 5.0079                54.2256

                     49                     50                     51
                      A                      A                      A
 Frequencies --    646.9275               671.2003               680.0980
 Red. masses --      4.2779                 1.5449                 2.0782
 Frc consts  --      1.0548                 0.4101                 0.5663
 IR Inten    --     66.5894               130.6552                35.3618

                     52                     53                     54
                      A                      A                      A
 Frequencies --    729.2053               754.7592               765.7704
 Red. masses --      1.5837                 1.3587                 1.1479
 Frc consts  --      0.4962                 0.4560                 0.3966
 IR Inten    --     39.4480                77.3725                 0.7976

                     55                     56                     57
                      A                      A                      A
 Frequencies --    775.9219               802.1324               808.5697
 Red. masses --      1.1709                 1.1307                 2.2317
 Frc consts  --      0.4153                 0.4286                 0.8596
 IR Inten    --    183.6783                75.6198                24.6096

                     58                     59                     60
                      A                      A                      A
 Frequencies --    821.3543               833.8543               849.7182
 Red. masses --      6.4974                 6.2460                 2.2544
 Frc consts  --      2.5826                 2.5588                 0.9590
 IR Inten    --     84.8211                 5.2383                30.3085

                     61                     62                     63
                      A                      A                      A
 Frequencies --    854.1923               892.0034               912.1982
 Red. masses --      2.9476                 1.9484                 1.1530
 Frc consts  --      1.2672                 0.9134                 0.5653
 IR Inten    --     31.4093                35.1493               201.1245

                     64                     65                     66
                      A                      A                      A
 Frequencies --    921.9374               951.6026               993.3580
 Red. masses --      1.4247                 3.3997                 1.7108
 Frc consts  --      0.7135                 1.8139                 0.9947
 IR Inten    --     11.3149                75.0881                41.6363

                     67                     68                     69
                      A                      A                      A
 Frequencies --   1004.3744              1017.4310              1042.0073
 Red. masses --      1.3800                 2.2349                 1.6860
 Frc consts  --      0.8202                 1.3631                 1.0786
 IR Inten    --      1.3990                68.7314                10.8748

                     70                     71                     72
                      A                      A                      A
 Frequencies --   1055.7577              1129.6678              1170.6561
 Red. masses --      1.9960                 3.4912                 1.1315
 Frc consts  --      1.3108                 2.6250                 0.9136
 IR Inten    --     13.0952                16.7798                 8.2760

                     73                     74                     75
                      A                      A                      A
 Frequencies --   1204.9581              1238.9350              1302.1919
 Red. masses --      1.2516                 1.0988                 3.2852
 Frc consts  --      1.0706                 0.9938                 3.2822
 IR Inten    --      5.4631                79.2895               230.1463

                     76                     77                     78
                      A                      A                      A
 Frequencies --   1331.9661              1372.7674              1379.0511
 Red. masses --      1.4129                 1.4623                 8.4113
 Frc consts  --      1.4769                 1.6236                 9.4248
 IR Inten    --      5.1722                12.9225               374.1009

                     79                     80                     81
                      A                      A                      A
 Frequencies --   1390.0601              1409.2627              1420.2009
 Red. masses --      2.3726                 4.1205                 2.1018
 Frc consts  --      2.7012                 4.8215                 2.4977
 IR Inten    --     35.2561               170.6913                35.0411

                     82                     83                     84
                      A                      A                      A
 Frequencies --   1442.9660              1492.0295              1520.7787
 Red. masses --      2.1885                 2.8264                 2.1243
 Frc consts  --      2.6848                 3.7071                 2.8947
 IR Inten    --     20.5290                 0.9325                29.9722

                     85                     86                     87
                      A                      A                      A
 Frequencies --   1578.9422              1669.0429              1682.5767
 Red. masses --      4.6151                 8.7902                10.0359
 Frc consts  --      6.7790                14.4273                16.7400
 IR Inten    --     79.7421               253.8058               341.7186

                     88                     89                     90
                      A                      A                      A
 Frequencies --   1694.6363              1733.9469              1745.5107
 Red. masses --      6.8934                 1.0773                 1.0847
 Frc consts  --     11.6637                 1.9083                 1.9472
 IR Inten    --     44.2276               271.2985               198.9319

                     91                     92                     93
                      A                      A                      A
 Frequencies --   1753.6258              1770.7139              1778.2478
 Red. masses --      1.0912                 1.0858                 1.0869
 Frc consts  --      1.9772                 2.0059                 2.0250
 IR Inten    --    144.1856               786.8257               208.0513

                     94                     95                     96
                      A                      A                      A
 Frequencies --   2999.3271              3183.4541              3189.0807
 Red. masses --      1.0859                 1.0874                 1.0894
 Frc consts  --      5.7555                 6.4926                 6.5278
 IR Inten    --     48.0628                14.3349                23.3593

                     97                     98                     99
                      A                      A                      A
 Frequencies --   3202.6082              3216.6087              3234.5657
 Red. masses --      1.0568                 1.0945                 1.0916
 Frc consts  --      6.3863                 6.6721                 6.7287
 IR Inten    --      2.7502                14.0010                 5.9060

                    100                    101                    102
                      A                      A                      A
 Frequencies --   3316.6133              3393.8307              3532.6473
 Red. masses --      1.1150                 1.0647                 1.0614
 Frc consts  --      7.2261                 7.2254                 7.8040
 IR Inten    --      1.0067               576.0104               318.4561

                    103                    104                    105
                      A                      A                      A
 Frequencies --   3654.0589              3660.0636              3667.6368
 Red. masses --      1.0577                 1.0669                 1.0501
 Frc consts  --      8.3208                 8.4211                 8.3223
 IR Inten    --    250.8713               199.5271               306.8603

                    106                    107                    108
                      A                      A                      A
 Frequencies --   3688.0905              3696.4083              3748.9737
 Red. masses --      1.0756                 1.0568                 1.0615
 Frc consts  --      8.6197                 8.5073                 8.7899
 IR Inten    --    122.9397               224.6172               107.7969

                    109                    110                    111
                      A                      A                      A
 Frequencies --   3782.1649              3801.8124              3831.7001
 Red. masses --      1.0687                 1.0661                 1.0683
 Frc consts  --      9.0071                 9.0792                 9.2409
 IR Inten    --     49.6420                10.3025                18.1402

 - Thermochemistry -
 -------------------
 Temperature   298.150 Kelvin.  Pressure   1.00000 Atm.
 Atom     1 has atomic number  6 and mass  12.00000

 Molecular mass:   314.08491 amu.
 Principal axes and moments of inertia in atomic units:
                           1         2         3
     Eigenvalues --  5203.97503********************
           X            0.99998   0.00171  -0.00619
           Y           -0.00168   0.99999   0.00479
           Z            0.00620  -0.00478   0.99997
 This molecule is an asymmetric top.
 Rotational symmetry number  1.
 Warning -- assumption of classical behavior for rotation
           may cause significant error
 Rotational temperatures (Kelvin)      0.01664     0.00815     0.00698
 Rotational constants (GHZ):           0.34680     0.16990     0.14546
    1 imaginary frequencies ignored.
 Zero-point vibrational energy     773398.0 (Joules/Mol)
                                  184.84656 (Kcal/Mol)
 Warning -- explicit consideration of  46 degrees of freedom as
           vibrations may cause significant error
 Vibrational temperatures:     27.91    36.16    38.42    48.52    60.63
          (Kelvin)             91.53   105.28   107.57   116.67   119.70
                              126.05   140.60   151.34   176.87   200.79
                              242.87   250.00   256.92   286.59   294.82
                              308.53   327.67   341.85   358.67   373.09
                              430.20   483.90   490.89   513.77   521.59
                              589.98   594.13   607.68   620.40   646.57
                              651.71   660.63   682.02   694.43   710.53
                              763.23   823.43   832.26   861.16   872.89
                              885.44   905.15   930.78   965.71   978.51
                             1049.16  1085.93  1101.77  1116.38  1154.09
                             1163.35  1181.74  1199.73  1222.55  1228.99
                             1283.39  1312.45  1326.46  1369.14  1429.22
                             1445.07  1463.85  1499.21  1519.00  1625.34
                             1684.31  1733.66  1782.55  1873.56  1916.40
                             1975.10  1984.14  1999.98  2027.61  2043.35
                             2076.10  2146.70  2188.06  2271.74  2401.38
                             2420.85  2438.20  2494.76  2511.40  2523.07
                             2547.66  2558.50  4315.36  4580.27  4588.37
                             4607.83  4627.98  4653.81  4771.86  4882.96
                             5082.69  5257.37  5266.01  5276.90  5306.33
                             5318.30  5393.93  5441.68  5469.95  5512.95

 Zero-point correction=                           0.294572 (Hartree/Particle)
 Thermal correction to Energy=                    0.322140
 Thermal correction to Enthalpy=                  0.323084
 Thermal correction to Gibbs Free Energy=         0.234369
 Sum of electronic and zero-point Energies=          -1219.154729
 Sum of electronic and thermal Energies=             -1219.127161
 Sum of electronic and thermal Enthalpies=           -1219.126217
 Sum of electronic and thermal Free Energies=        -1219.214932

                     E (Thermal)             CV                S
                      KCal/Mol        Cal/Mol-Kelvin    Cal/Mol-Kelvin
 Total                  202.146             97.739            186.717
 Electronic               0.000              0.000              0.000
 Translational            0.889              2.981             43.130
 Rotational               0.889              2.981             34.882
 Vibrational            200.368             91.778            108.705
 Vibration     1          0.593              1.986              6.695
 Vibration     2          0.593              1.985              6.181
 Vibration     3          0.593              1.984              6.061
 Vibration     4          0.594              1.983              5.597
 Vibration     5          0.595              1.980              5.156
 Vibration     6          0.597              1.972              4.342
 Vibration     7          0.599              1.967              4.066
 Vibration     8          0.599              1.966              4.024
 Vibration     9          0.600              1.962              3.864
 Vibration    10          0.600              1.961              3.814
 Vibration    11          0.601              1.958              3.713
 Vibration    12          0.603              1.951              3.499
 Vibration    13          0.605              1.945              3.356
 Vibration    14          0.610              1.930              3.054
 Vibration    15          0.615              1.914              2.810
 Vibration    16          0.625              1.881              2.449
 Vibration    17          0.627              1.875              2.394
 Vibration    18          0.629              1.869              2.343
 Vibration    19          0.637              1.841              2.141
 Vibration    20          0.640              1.833              2.089
 Vibration    21          0.644              1.819              2.006
 Vibration    22          0.651              1.799              1.897
 Vibration    23          0.656              1.783              1.821
 Vibration    24          0.662              1.764              1.736
 Vibration    25          0.668              1.747              1.666
 Vibration    26          0.692              1.676              1.422
 Vibration    27          0.717              1.603              1.230
 Vibration    28          0.721              1.593              1.207
 Vibration    29          0.732              1.561              1.135
 Vibration    30          0.736              1.549              1.111
 Vibration    31          0.774              1.448              0.926
 Vibration    32          0.777              1.442              0.916
 Vibration    33          0.785              1.422              0.884
 Vibration    34          0.792              1.402              0.855
 Vibration    35          0.808              1.362              0.798
 Vibration    36          0.812              1.354              0.787
 Vibration    37          0.817              1.341              0.769
 Vibration    38          0.831              1.308              0.726
 Vibration    39          0.839              1.289              0.703
 Vibration    40          0.849              1.264              0.674
 Vibration    41          0.885              1.183              0.586
 Vibration    42          0.929              1.091              0.500
 Vibration    43          0.935              1.078              0.488
 Vibration    44          0.957              1.035              0.452
 Vibration    45          0.965              1.018              0.438
 Vibration    46          0.975              0.999              0.424

 Optimization completed.
    -- Stationary point found.
 Normal termination of Gaussian 09 at Wed Feb  6 07:47:25 2019.
