 Gaussian 09, Revision D.01,
 Gaussian 09:  EM64L-G09RevD.01 24-Apr-2013

 -----------------------------------------------------------------
 # rb3lyp/6-311+g(2d,2p) geom=connectivity empiricaldispersion=gd3
 -----------------------------------------------------------------

 -------------------
 Title Card Required
 -------------------
 Symbolic Z-matrix:
 Charge = -2 Multiplicity = 1

                         Standard orientation:
 ---------------------------------------------------------------------
 Center     Atomic      Atomic             Coordinates (Angstroms)
 Number     Number       Type             X           Y           Z
 ---------------------------------------------------------------------
      1          6           0       -1.520228    0.126858   -0.463007
      2          6           0       -0.640656    0.344212   -1.611685
      3          6           0       -1.403791    0.986427    0.627699
      4          6           0        0.377422    1.219842   -1.568663
      5          1           0       -0.873935   -0.230128   -2.501640
      6          6           0       -2.772787   -0.744189   -0.603246
      7          6           0       -0.208342    1.663855    0.830122
      8          1           0       -2.131771    0.926375    1.425930
      9          6           0        0.753154    1.933570   -0.308025
     10          1           0        1.019939    1.391314   -2.427327
     11          8           0       -3.085375   -1.081702   -1.772223
     12          8           0       -3.382225   -1.023472    0.475721
     13          1           0       -0.092096    2.305696    1.698032
     14          8           0        0.806257    3.374662   -0.595444
     15          1           0        1.754914    1.597413   -0.002994
     16          1           0        1.338784    3.765761    0.110625
     17          6           0       -0.118664   -1.775643    0.612545
     18          6           0        0.909528   -0.900635    0.922181
     19          1           0        0.055638   -2.542318   -0.131849
     20          1           0       -1.015616   -1.830824    1.209850
     21          6           0        2.251202   -1.011558    0.144676
     22          8           0        0.752408    0.062763    1.772695
     23          8           0        3.033365   -0.012439    0.192116
     24          8           0        2.455722   -2.103946   -0.448240
     25          8           0       -2.223109   -0.803006    3.103632
     26          1           0       -1.320751   -0.546298    2.858507
     27          1           0       -2.666826   -0.910019    2.234036
     28          8           0        5.728288   -0.752478    0.926100
     29          1           0        4.815148   -0.410675    0.967722
     30          1           0        5.677680   -1.191657    0.057428
     31          8           0        4.759356   -1.373514   -1.719368
     32          1           0        3.991859   -1.880516   -1.349664
     33          1           0        4.465578   -0.501696   -1.403386
     34          8           0       -1.835198    4.297637   -0.029063
     35          1           0       -0.942558    4.087440   -0.362533
     36          1           0       -2.211265    3.412153    0.069506
     37          8           0       -5.483434   -2.381190   -0.937142
     38          1           0       -4.801727   -2.067657   -1.562673
     39          1           0       -5.032462   -2.057321   -0.135405
 ---------------------------------------------------------------------

 SCF Done:  E(RB3LYP) =  -1219.92812497     A.U. after   16 cycles

 The electronic state is 1-A.
 Alpha  occ. eigenvalues --  -18.97498 -18.93699 -18.91812 -18.90351 -18.89900
 Alpha  occ. eigenvalues --  -18.89454 -18.88614 -18.87293 -18.87261 -18.86946
 Alpha  occ. eigenvalues --  -18.86775 -10.06713 -10.05761 -10.04891 -10.03042
 Alpha  occ. eigenvalues --  -10.02307 -10.01291  -9.99121  -9.99021  -9.98333
 Alpha  occ. eigenvalues --   -9.96763  -0.86494  -0.83489  -0.83349  -0.82355
 Alpha  occ. eigenvalues --   -0.80640  -0.78962  -0.78835  -0.77697  -0.77247
 Alpha  occ. eigenvalues --   -0.74646  -0.74022  -0.66622  -0.57451  -0.56513
 Alpha  occ. eigenvalues --   -0.52948  -0.45189  -0.42375  -0.39786  -0.35890
 Alpha  occ. eigenvalues --   -0.35346  -0.34105  -0.31868  -0.30754  -0.29639
 Alpha  occ. eigenvalues --   -0.28936  -0.28664  -0.28452  -0.27503  -0.26443
 Alpha  occ. eigenvalues --   -0.26042  -0.25063  -0.24847  -0.24173  -0.23215
 Alpha  occ. eigenvalues --   -0.22200  -0.21470  -0.21245  -0.20758  -0.19911
 Alpha  occ. eigenvalues --   -0.19785  -0.19333  -0.18555  -0.18174  -0.17640
 Alpha  occ. eigenvalues --   -0.16976  -0.16669  -0.15422  -0.13836  -0.13012
 Alpha  occ. eigenvalues --   -0.11918  -0.09943  -0.09668  -0.09464  -0.09092
 Alpha  occ. eigenvalues --   -0.08310  -0.06594  -0.06158  -0.05910  -0.05531
 Alpha  occ. eigenvalues --   -0.05020  -0.04529  -0.03186  -0.02381
 Alpha virt. eigenvalues --    0.09528   0.15626   0.16757   0.18374   0.18687
 Alpha virt. eigenvalues --    0.19494   0.20319   0.20913   0.21288   0.21893
 Alpha virt. eigenvalues --    0.22560   0.22910   0.23896   0.24437   0.24769

 Mulliken charges:
               1
     1  C   -0.020854
     2  C    0.051359
     3  C   -0.149656
     4  C   -0.208765
     5  H    0.109489
     6  C    0.468089
     7  C   -0.120792
     8  H    0.142146
     9  C   -0.158971
    10  H    0.072288
    11  O   -0.600506
    12  O   -0.667395
    13  H    0.093736
    14  O   -0.451924
    15  H    0.192519
    16  H    0.235148
    17  C   -0.264172
    18  C    0.623983
    19  H    0.122564
    20  H    0.141133
    21  C    0.113510
    22  O   -0.488890
    23  O   -0.684793
    24  O   -0.554234
    25  O   -0.580824
    26  H    0.278761
    27  H    0.323760
    28  O   -0.631141
    29  H    0.323646
    30  H    0.285099
    31  O   -0.569376
    32  H    0.297942
    33  H    0.265309
    34  O   -0.584587
    35  H    0.322466
    36  H    0.285205
    37  O   -0.567355
    38  H    0.271578
    39  H    0.284505
 Sum of Mulliken charges =  -2.00000

 Dipole moment (field-independent basis, Debye):
    X=              1.3689    Y=              7.0595    Z=             -0.1496  Tot=              7.1925
 Quadrupole moment (field-independent basis, Debye-Ang):
   XX=           -304.8907   YY=           -181.1524   ZZ=           -166.8161
   XY=              1.3616   XZ=             -4.8798   YZ=             -0.2932

 Normal termination of Gaussian 09 at Wed Feb  6 08:08:28 2019.
