 Gaussian 09, Revision D.01,
 Gaussian 09:  EM64L-G09RevD.01 24-Apr-2013

 ----------------------------------------------------------------------
 # rb3lyp/6-31g(d,p) scrf=(iefpcm,solvent=water) geom=connectivity empi
 ricaldispersion=gd3
 ----------------------------------------------------------------------

 -------------------
 Title Card Required
 -------------------
 Symbolic Z-matrix:
 Charge = -2 Multiplicity = 1

                         Standard orientation:
 ---------------------------------------------------------------------
 Center     Atomic      Atomic             Coordinates (Angstroms)
 Number     Number       Type             X           Y           Z
 ---------------------------------------------------------------------
      1          6           0       -1.520228    0.126858   -0.463007
      2          6           0       -0.640656    0.344212   -1.611685
      3          6           0       -1.403791    0.986427    0.627699
      4          6           0        0.377422    1.219842   -1.568663
      5          1           0       -0.873935   -0.230128   -2.501640
      6          6           0       -2.772787   -0.744189   -0.603246
      7          6           0       -0.208342    1.663855    0.830122
      8          1           0       -2.131771    0.926375    1.425930
      9          6           0        0.753154    1.933570   -0.308025
     10          1           0        1.019939    1.391314   -2.427327
     11          8           0       -3.085375   -1.081702   -1.772223
     12          8           0       -3.382225   -1.023472    0.475721
     13          1           0       -0.092096    2.305696    1.698032
     14          8           0        0.806257    3.374662   -0.595444
     15          1           0        1.754914    1.597413   -0.002994
     16          1           0        1.338784    3.765761    0.110625
     17          6           0       -0.118664   -1.775643    0.612545
     18          6           0        0.909528   -0.900635    0.922181
     19          1           0        0.055638   -2.542318   -0.131849
     20          1           0       -1.015616   -1.830824    1.209850
     21          6           0        2.251202   -1.011558    0.144676
     22          8           0        0.752408    0.062763    1.772695
     23          8           0        3.033365   -0.012439    0.192116
     24          8           0        2.455722   -2.103946   -0.448240
     25          8           0       -2.223109   -0.803006    3.103632
     26          1           0       -1.320751   -0.546298    2.858507
     27          1           0       -2.666826   -0.910019    2.234036
     28          8           0        5.728288   -0.752478    0.926100
     29          1           0        4.815148   -0.410675    0.967722
     30          1           0        5.677680   -1.191657    0.057428
     31          8           0        4.759356   -1.373514   -1.719368
     32          1           0        3.991859   -1.880516   -1.349664
     33          1           0        4.465578   -0.501696   -1.403386
     34          8           0       -1.835198    4.297637   -0.029063
     35          1           0       -0.942558    4.087440   -0.362533
     36          1           0       -2.211265    3.412153    0.069506
     37          8           0       -5.483434   -2.381190   -0.937142
     38          1           0       -4.801727   -2.067657   -1.562673
     39          1           0       -5.032462   -2.057321   -0.135405
 ---------------------------------------------------------------------

 SCF Done:  E(RB3LYP) =  -1219.67526753     A.U. after   14 cycles

 The electronic state is 1-A.
 Alpha  occ. eigenvalues --  -19.16411 -19.13061 -19.11732 -19.11461 -19.11215
 Alpha  occ. eigenvalues --  -19.09982 -19.09417 -19.09276 -19.09114 -19.08911
 Alpha  occ. eigenvalues --  -19.08731 -10.27404 -10.26521 -10.23971 -10.22654
 Alpha  occ. eigenvalues --  -10.22408 -10.21195 -10.18896 -10.18744 -10.18303
 Alpha  occ. eigenvalues --  -10.17029  -1.02537  -1.02170  -1.02126  -0.98935
 Alpha  occ. eigenvalues --   -0.97621  -0.97140  -0.97072  -0.95687  -0.95420
 Alpha  occ. eigenvalues --   -0.93381  -0.92790  -0.84436  -0.75292  -0.74281
 Alpha  occ. eigenvalues --   -0.71286  -0.62824  -0.60163  -0.58352  -0.53857
 Alpha  occ. eigenvalues --   -0.51733  -0.50368  -0.49275  -0.48416  -0.47923
 Alpha  occ. eigenvalues --   -0.47210  -0.46693  -0.46287  -0.45468  -0.44648
 Alpha  occ. eigenvalues --   -0.44391  -0.43138  -0.42609  -0.41820  -0.41280
 Alpha  occ. eigenvalues --   -0.40077  -0.39530  -0.38704  -0.38388  -0.38153
 Alpha  occ. eigenvalues --   -0.37323  -0.36768  -0.36233  -0.35722  -0.35441
 Alpha  occ. eigenvalues --   -0.34863  -0.34521  -0.32748  -0.31047  -0.28948
 Alpha  occ. eigenvalues --   -0.27919  -0.27807  -0.27546  -0.27418  -0.26426
 Alpha  occ. eigenvalues --   -0.25926  -0.24913  -0.24545  -0.24399  -0.23941
 Alpha  occ. eigenvalues --   -0.23509  -0.22966  -0.21512  -0.20452
 Alpha virt. eigenvalues --   -0.08043  -0.00594   0.02257   0.03881   0.08900
 Alpha virt. eigenvalues --    0.10346   0.11643   0.12402   0.13063   0.13671
 Alpha virt. eigenvalues --    0.14960   0.15660   0.16183   0.17611   0.18413

 Mulliken charges:
               1
     1  C    0.017148
     2  C   -0.059744
     3  C   -0.097115
     4  C   -0.099437
     5  H    0.100233
     6  C    0.562918
     7  C   -0.032965
     8  H    0.097978
     9  C    0.081542
    10  H    0.104406
    11  O   -0.618812
    12  O   -0.636622
    13  H    0.123903
    14  O   -0.568523
    15  H    0.172766
    16  H    0.337798
    17  C   -0.294258
    18  C    0.342876
    19  H    0.103334
    20  H    0.091767
    21  C    0.544861
    22  O   -0.569695
    23  O   -0.630455
    24  O   -0.628066
    25  O   -0.711076
    26  H    0.314979
    27  H    0.342943
    28  O   -0.726692
    29  H    0.310121
    30  H    0.291726
    31  O   -0.690291
    32  H    0.319296
    33  H    0.300552
    34  O   -0.702006
    35  H    0.323578
    36  H    0.305880
    37  O   -0.724732
    38  H    0.300256
    39  H    0.299629
 Sum of Mulliken charges =  -2.00000

 Dipole moment (field-independent basis, Debye):
    X=              1.7041    Y=              9.1858    Z=             -0.4600  Tot=              9.3539
 Quadrupole moment (field-independent basis, Debye-Ang):
   XX=           -298.5480   YY=           -170.1088   ZZ=           -157.9243
   XY=              2.4013   XZ=             -5.5525   YZ=             -0.6148

 Normal termination of Gaussian 09 at Wed Feb  6 08:05:09 2019.
