 Gaussian 09, Revision D.01,
 Gaussian 09:  EM64L-G09RevD.01 24-Apr-2013

 ----------------------------------------------------------------------
 #p opt freq=noraman rb3lyp/6-31g(d,p) geom=connectivity empiricaldispe
 rsion=gd3
 ----------------------------------------------------------------------

 -------------------
 Title Card Required
 -------------------
 Symbolic Z-matrix:
 Charge = -2 Multiplicity = 1

 SCF Done:  E(RB3LYP) =  -1219.49293281     A.U. after   16 cycles
 SCF Done:  E(RB3LYP) =  -1219.49332398     A.U. after   16 cycles
 SCF Done:  E(RB3LYP) =  -1219.49923018     A.U. after   13 cycles
 SCF Done:  E(RB3LYP) =  -1219.50127609     A.U. after   14 cycles
 SCF Done:  E(RB3LYP) =  -1219.50454854     A.U. after   14 cycles
 SCF Done:  E(RB3LYP) =  -1219.50497996     A.U. after   13 cycles
 SCF Done:  E(RB3LYP) =  -1219.50655179     A.U. after   13 cycles
 SCF Done:  E(RB3LYP) =  -1219.50600112     A.U. after   13 cycles
 SCF Done:  E(RB3LYP) =  -1219.50726177     A.U. after   10 cycles
 SCF Done:  E(RB3LYP) =  -1219.50746777     A.U. after   13 cycles
 SCF Done:  E(RB3LYP) =  -1219.50826375     A.U. after    8 cycles
 SCF Done:  E(RB3LYP) =  -1219.50826704     A.U. after    8 cycles
 SCF Done:  E(RB3LYP) =  -1219.50827071     A.U. after    8 cycles
 SCF Done:  E(RB3LYP) =  -1219.50827396     A.U. after    8 cycles
 SCF Done:  E(RB3LYP) =  -1219.50827612     A.U. after    8 cycles
 SCF Done:  E(RB3LYP) =  -1219.50827777     A.U. after    8 cycles
 SCF Done:  E(RB3LYP) =  -1219.50827885     A.U. after    8 cycles
 SCF Done:  E(RB3LYP) =  -1219.50827912     A.U. after    7 cycles
 SCF Done:  E(RB3LYP) =  -1219.50827906     A.U. after    7 cycles
 Optimization completed.
    -- Stationary point found.
 Normal termination of Gaussian 09 at Wed Feb  6 09:33:24 2019.

 ----------------------------------------------------------------------
 #P Geom=AllCheck Guess=TCheck SCRF=Check GenChk RB3LYP/6-31G(d,p) Freq
 ----------------------------------------------------------------------

 Structure from the checkpoint file:  "ChorA_PS.chk"
 -------------------
 Title Card Required
 -------------------
 Charge = -2 Multiplicity = 1

                         Standard orientation:
 ---------------------------------------------------------------------
 Center     Atomic      Atomic             Coordinates (Angstroms)
 Number     Number       Type             X           Y           Z
 ---------------------------------------------------------------------
      1          6           0       -1.090640   -0.214478   -0.326192
      2          6           0       -0.482136    0.637630   -1.408189
      3          6           0       -1.054054    0.494825    1.006546
      4          6           0        0.269357    1.715608   -1.178591
      5          1           0       -0.683873    0.306497   -2.421416
      6          6           0       -2.592367   -0.604079   -0.668215
      7          6           0       -0.306418    1.578271    1.236499
      8          1           0       -1.627420    0.038436    1.806101
      9          6           0        0.598202    2.192516    0.202632
     10          1           0        0.716342    2.278853   -1.994412
     11          8           0       -3.031550   -0.252970   -1.786347
     12          8           0       -3.195605   -1.259118    0.232499
     13          1           0       -0.286173    2.028524    2.228665
     14          8           0        0.500283    3.656725    0.199323
     15          1           0        1.640255    1.921979    0.433029
     16          1           0        0.796259    3.944146    1.074067
     17          6           0       -0.310267   -1.585531   -0.243020
     18          6           0        0.955888   -1.491706    0.588832
     19          1           0       -0.060556   -1.909570   -1.256727
     20          1           0       -0.966129   -2.320187    0.226563
     21          6           0        2.251138   -1.026225   -0.114891
     22          8           0        0.950402   -1.803922    1.775023
     23          8           0        2.874661   -0.054835    0.392995
     24          8           0        2.537063   -1.707623   -1.134579
     25          8           0       -2.011481   -2.228736    2.646387
     26          1           0       -1.065003   -2.140885    2.447732
     27          1           0       -2.452870   -1.933169    1.821666
     28          8           0        5.713784   -0.657120    0.700961
     29          1           0        4.775916   -0.501884    0.914436
     30          1           0        5.648892   -0.653487   -0.271514
     31          8           0        4.662822   -0.163328   -1.939107
     32          1           0        3.995379   -0.886374   -1.843235
     33          1           0        4.271844    0.437491   -1.282388
     34          8           0       -2.241187    4.063283    0.881979
     35          1           0       -1.359430    4.048929    0.465679
     36          1           0       -2.460114    3.120987    0.871373
     37          8           0       -5.560035   -1.506500   -1.388853
     38          1           0       -4.872885   -0.989566   -1.853276
     39          1           0       -5.035914   -1.658559   -0.581046
 ---------------------------------------------------------------------

 SCF Done:  E(RB3LYP) =  -1219.50827906     A.U. after    1 cycles

 The electronic state is 1-A.
 Alpha  occ. eigenvalues --  -18.97908 -18.93683 -18.92802 -18.91139 -18.89426
 Alpha  occ. eigenvalues --  -18.89225 -18.89134 -18.88876 -18.87866 -18.87671
 Alpha  occ. eigenvalues --  -18.87573 -10.06579 -10.06159 -10.05839 -10.04811
 Alpha  occ. eigenvalues --  -10.00068  -9.99080  -9.98825  -9.98637  -9.98549
 Alpha  occ. eigenvalues --   -9.98298  -0.84161  -0.83666  -0.81053  -0.80775
 Alpha  occ. eigenvalues --   -0.78723  -0.76970  -0.75133  -0.75058  -0.73658
 Alpha  occ. eigenvalues --   -0.73145  -0.72010  -0.64295  -0.56959  -0.54906
 Alpha  occ. eigenvalues --   -0.49936  -0.43381  -0.39671  -0.39166  -0.32801
 Alpha  occ. eigenvalues --   -0.31925  -0.30837  -0.29345  -0.28131  -0.27868
 Alpha  occ. eigenvalues --   -0.27346  -0.26530  -0.25853  -0.25478  -0.24279
 Alpha  occ. eigenvalues --   -0.23548  -0.23095  -0.22294  -0.21917  -0.21106
 Alpha  occ. eigenvalues --   -0.20337  -0.19698  -0.18670  -0.18157  -0.17586
 Alpha  occ. eigenvalues --   -0.17248  -0.16917  -0.16176  -0.15628  -0.14405
 Alpha  occ. eigenvalues --   -0.13700  -0.13439  -0.13146  -0.11717  -0.10110
 Alpha  occ. eigenvalues --   -0.08817  -0.08242  -0.07192  -0.06286  -0.05745
 Alpha  occ. eigenvalues --   -0.05694  -0.05567  -0.04365  -0.04073  -0.03342
 Alpha  occ. eigenvalues --   -0.03136  -0.01924  -0.01619  -0.00201
 Alpha virt. eigenvalues --    0.17554   0.20608   0.21479   0.25913   0.26810
 Alpha virt. eigenvalues --    0.28369   0.29729   0.30962   0.32303   0.33322
 Alpha virt. eigenvalues --    0.34168   0.36548   0.37142   0.37891   0.38238

 Mulliken charges:
               1
     1  C   -0.127530
     2  C   -0.004940
     3  C   -0.064605
     4  C   -0.086890
     5  H    0.081346
     6  C    0.595155
     7  C   -0.113087
     8  H    0.096788
     9  C    0.081991
    10  H    0.057406
    11  O   -0.596135
    12  O   -0.616141
    13  H    0.050892
    14  O   -0.565443
    15  H    0.146709
    16  H    0.293714
    17  C   -0.243409
    18  C    0.395672
    19  H    0.115419
    20  H    0.108340
    21  C    0.540406
    22  O   -0.489552
    23  O   -0.605529
    24  O   -0.599527
    25  O   -0.720122
    26  H    0.307870
    27  H    0.341030
    28  O   -0.717765
    29  H    0.311902
    30  H    0.287498
    31  O   -0.679555
    32  H    0.322583
    33  H    0.294236
    34  O   -0.689782
    35  H    0.312922
    36  H    0.300029
    37  O   -0.719278
    38  H    0.299161
    39  H    0.298220
 Sum of Mulliken charges =  -2.00000

 Dipole moment (field-independent basis, Debye):
    X=              2.2711    Y=              4.8269    Z=              0.5789  Tot=              5.3658
 Quadrupole moment (field-independent basis, Debye-Ang):
   XX=           -296.7839   YY=           -169.1800   ZZ=           -158.4786
   XY=              2.9921   XZ=             -4.6654   YZ=              7.0043

  Exact polarizability: 170.919  24.337 149.243  -0.369   0.851 141.351
 Approx polarizability: 222.490  47.865 230.929   3.120   4.643 235.073

                      1                      2                      3
                      A                      A                      A
 Frequencies --     16.4963                23.7420                27.0220
 Red. masses --      8.3084                 7.6299                 7.9672
 Frc consts  --      0.0013                 0.0025                 0.0034
 IR Inten    --      2.0501                 1.5979                 4.9703

                      4                      5                      6
                      A                      A                      A
 Frequencies --     28.6084                40.4533                49.3095
 Red. masses --      7.6911                 8.9579                 6.6705
 Frc consts  --      0.0037                 0.0086                 0.0096
 IR Inten    --      1.0017                 0.5081                 0.6477

                      7                      8                      9
                      A                      A                      A
 Frequencies --     54.3483                70.4576                74.6118
 Red. masses --     10.8232                 8.4685                 8.3915
 Frc consts  --      0.0188                 0.0248                 0.0275
 IR Inten    --      0.5502                 8.4181                 1.8105

                     10                     11                     12
                      A                      A                      A
 Frequencies --     80.1638                86.3937                90.7350
 Red. masses --      9.2327                 8.2031                 6.9211
 Frc consts  --      0.0350                 0.0361                 0.0336
 IR Inten    --      1.4298                 1.1950                 0.6787

                     13                     14                     15
                      A                      A                      A
 Frequencies --     98.5164               114.8363               140.5250
 Red. masses --      6.4015                 7.0892                 8.4359
 Frc consts  --      0.0366                 0.0551                 0.0981
 IR Inten    --      3.1342                 0.5958                 1.1803

                     16                     17                     18
                      A                      A                      A
 Frequencies --    148.3337               161.2403               175.2702
 Red. masses --      6.4308                 6.3892                 5.6230
 Frc consts  --      0.0834                 0.0979                 0.1018
 IR Inten    --      0.9239                 6.1816                 1.5260

                     19                     20                     21
                      A                      A                      A
 Frequencies --    183.5264               183.5786               201.1553
 Red. masses --      2.4972                 5.8497                 5.6534
 Frc consts  --      0.0496                 0.1162                 0.1348
 IR Inten    --     18.3650                 1.1435                10.2908

                     22                     23                     24
                      A                      A                      A
 Frequencies --    209.5863               224.7809               236.2039
 Red. masses --      6.0673                 4.3546                 6.0412
 Frc consts  --      0.1570                 0.1296                 0.1986
 IR Inten    --      4.2850                 1.7910                31.4791

                     25                     26                     27
                      A                      A                      A
 Frequencies --    256.9072               276.3815               291.3109
 Red. masses --      3.4198                 2.2095                 4.2532
 Frc consts  --      0.1330                 0.0994                 0.2127
 IR Inten    --      2.3498                59.1422                 3.8990

                     28                     29                     30
                      A                      A                      A
 Frequencies --    343.9022               345.1410               368.3151
 Red. masses --      1.9783                 2.1289                 3.7913
 Frc consts  --      0.1379                 0.1494                 0.3030
 IR Inten    --     54.1687                60.3675                 3.2112

                     31                     32                     33
                      A                      A                      A
 Frequencies --    376.0735               412.5662               414.2281
 Red. masses --      3.3614                 1.3560                 1.1514
 Frc consts  --      0.2801                 0.1360                 0.1164
 IR Inten    --     43.9084                37.0527                69.7021

                     34                     35                     36
                      A                      A                      A
 Frequencies --    420.6230               425.7571               439.5363
 Red. masses --      1.0332                 2.0523                 1.1672
 Frc consts  --      0.1077                 0.2192                 0.1329
 IR Inten    --      1.4634                19.2571                25.7908

                     37                     38                     39
                      A                      A                      A
 Frequencies --    454.7069               461.9749               477.8230
 Red. masses --      1.1326                 2.2317                 2.1533
 Frc consts  --      0.1380                 0.2806                 0.2897
 IR Inten    --     54.6113                41.2055                24.2107

                     40                     41                     42
                      A                      A                      A
 Frequencies --    480.2612               518.9299               550.3792
 Red. masses --      1.3086                 4.0078                 4.6452
 Frc consts  --      0.1778                 0.6359                 0.8290
 IR Inten    --     13.6151                 1.6537                36.5473

                     43                     44                     45
                      A                      A                      A
 Frequencies --    557.9763               589.3846               592.5432
 Red. masses --      1.0678                 1.5548                 2.5471
 Frc consts  --      0.1959                 0.3182                 0.5269
 IR Inten    --     52.9890                47.0748                21.4254

                     46                     47                     48
                      A                      A                      A
 Frequencies --    614.0678               642.2280               661.9507
 Red. masses --      3.8051                 3.2388                 1.1437
 Frc consts  --      0.8454                 0.7871                 0.2953
 IR Inten    --     25.3344                12.2609                92.0943

                     49                     50                     51
                      A                      A                      A
 Frequencies --    695.8036               702.0156               731.9713
 Red. masses --      1.3599                 2.4223                 1.7316
 Frc consts  --      0.3879                 0.7033                 0.5466
 IR Inten    --     71.4574                52.7418                57.6406

                     52                     53                     54
                      A                      A                      A
 Frequencies --    746.0403               750.2966               768.4109
 Red. masses --      1.3093                 1.4430                 1.1712
 Frc consts  --      0.4294                 0.4786                 0.4074
 IR Inten    --     43.3956                24.0939               165.5702

                     55                     56                     57
                      A                      A                      A
 Frequencies --    788.3376               790.2352               802.7660
 Red. masses --      1.0868                 3.8322                 7.2953
 Frc consts  --      0.3980                 1.4100                 2.7700
 IR Inten    --     75.3005                94.5000                74.1887

                     58                     59                     60
                      A                      A                      A
 Frequencies --    840.7244               850.1373               886.5998
 Red. masses --      6.0303                 4.2846                 1.2843
 Frc consts  --      2.5113                 1.8245                 0.5948
 IR Inten    --     38.2406                30.3291               230.3425

                     61                     62                     63
                      A                      A                      A
 Frequencies --    901.3611               929.9630               947.7613
 Red. masses --      3.8836                 2.6456                 2.1018
 Frc consts  --      1.8590                 1.3480                 1.1123
 IR Inten    --     22.8107                15.6041                 1.0423

                     64                     65                     66
                      A                      A                      A
 Frequencies --    977.5171               994.3496              1017.5248
 Red. masses --      3.6837                 1.3881                 1.4100
 Frc consts  --      2.0739                 0.8086                 0.8601
 IR Inten    --    122.0687                 1.4373                 7.5039

                     67                     68                     69
                      A                      A                      A
 Frequencies --   1021.2065              1042.1567              1054.9691
 Red. masses --      6.0876                 2.3344                 3.7085
 Frc consts  --      3.7404                 1.4938                 2.4318
 IR Inten    --     37.9175                10.5315                58.7105

                     70                     71                     72
                      A                      A                      A
 Frequencies --   1092.9573              1165.5539              1225.6061
 Red. masses --      2.0315                 1.4302                 1.4848
 Frc consts  --      1.4298                 1.1447                 1.3141
 IR Inten    --     12.3320                35.2039                43.7580

                     73                     74                     75
                      A                      A                      A
 Frequencies --   1232.4805              1244.1961              1294.3863
 Red. masses --      1.0863                 1.2066                 1.3549
 Frc consts  --      0.9722                 1.1005                 1.3375
 IR Inten    --     39.9890                78.5999                 2.9380

                     76                     77                     78
                      A                      A                      A
 Frequencies --   1323.9285              1345.0927              1366.2204
 Red. masses --      1.7032                 1.4718                 3.8504
 Frc consts  --      1.7590                 1.5689                 4.2345
 IR Inten    --      5.3081               182.8874               244.0614

                     79                     80                     81
                      A                      A                      A
 Frequencies --   1387.0743              1419.1182              1424.0870
 Red. masses --      1.5461                10.4849                 2.0121
 Frc consts  --      1.7526                12.4409                 2.4042
 IR Inten    --      9.2515               151.0979                19.3130

                     82                     83                     84
                      A                      A                      A
 Frequencies --   1451.8446              1499.6800              1679.9441
 Red. masses --      1.5923                 1.1033                 9.9198
 Frc consts  --      1.9775                 1.4620                16.4946
 IR Inten    --     28.4666                 4.5101               312.4579

                     85                     86                     87
                      A                      A                      A
 Frequencies --   1693.5105              1707.2659              1735.9446
 Red. masses --      7.3515                 8.6203                 1.2726
 Frc consts  --     12.4223                14.8038                 2.2596
 IR Inten    --    108.1325               346.2489               192.0040

                     88                     89                     90
                      A                      A                      A
 Frequencies --   1746.9866              1748.8712              1750.2367
 Red. masses --      1.5716                 1.2294                 1.8025
 Frc consts  --      2.8259                 2.2154                 3.2533
 IR Inten    --     44.8401               326.1026                16.5090

                     91                     92                     93
                      A                      A                      A
 Frequencies --   1754.5075              1769.9142              1776.6361
 Red. masses --      4.1929                 1.0890                 1.1612
 Frc consts  --      7.6046                 2.0100                 2.1595
 IR Inten    --    103.2337               814.8745                89.2284

                     94                     95                     96
                      A                      A                      A
 Frequencies --   3008.7318              3081.2928              3136.4830
 Red. masses --      1.0827                 1.0577                 1.0883
 Frc consts  --      5.7748                 5.9168                 6.3077
 IR Inten    --      4.1407                10.5054                36.3521

                     97                     98                     99
                      A                      A                      A
 Frequencies --   3147.6915              3165.6289              3207.9259
 Red. masses --      1.1055                 1.0873                 1.0939
 Frc consts  --      6.4536                 6.4196                 6.6325
 IR Inten    --      4.5382                21.7450                15.4642

                    100                    101                    102
                      A                      A                      A
 Frequencies --   3213.9014              3441.3808              3546.8244
 Red. masses --      1.0926                 1.0640                 1.0603
 Frc consts  --      6.6495                 7.4242                 7.8585
 IR Inten    --      7.2009               475.6325               389.6081

                    103                    104                    105
                      A                      A                      A
 Frequencies --   3653.5778              3665.9136              3678.1016
 Red. masses --      1.0654                 1.0576                 1.0509
 Frc consts  --      8.3791                 8.3738                 8.3765
 IR Inten    --    199.8162               240.5596               191.3823

                    106                    107                    108
                      A                      A                      A
 Frequencies --   3702.1251              3708.7671              3747.7605
 Red. masses --      1.0584                 1.0746                 1.0703
 Frc consts  --      8.5470                 8.7084                 8.8573
 IR Inten    --    214.2493               164.1381               135.8932

                    109                    110                    111
                      A                      A                      A
 Frequencies --   3759.0605              3798.8421              3832.2355
 Red. masses --      1.0621                 1.0660                 1.0682
 Frc consts  --      8.8422                 9.0635                 9.2428
 IR Inten    --     83.0860                 6.1823                17.0543

 - Thermochemistry -
 -------------------
 Temperature   298.150 Kelvin.  Pressure   1.00000 Atm.
 Atom     1 has atomic number  6 and mass  12.00000

 Molecular mass:   314.08491 amu.
 Principal axes and moments of inertia in atomic units:
                           1         2         3
     Eigenvalues --  5296.14006********************
           X            0.99997   0.00616  -0.00495
           Y           -0.00611   0.99993   0.01045
           Z            0.00501  -0.01042   0.99993
 This molecule is an asymmetric top.
 Rotational symmetry number  1.
 Warning -- assumption of classical behavior for rotation
           may cause significant error
 Rotational temperatures (Kelvin)      0.01635     0.00836     0.00706
 Rotational constants (GHZ):           0.34077     0.17428     0.14711
 Zero-point vibrational energy     779159.5 (Joules/Mol)
                                  186.22359 (Kcal/Mol)
 Warning -- explicit consideration of  46 degrees of freedom as
           vibrations may cause significant error
 Vibrational temperatures:     23.73    34.16    38.88    41.16    58.20
          (Kelvin)             70.95    78.19   101.37   107.35   115.34
                              124.30   130.55   141.74   165.22   202.18
                              213.42   231.99   252.17   264.05   264.13
                              289.42   301.55   323.41   339.84   369.63
                              397.65   419.13   494.80   496.58   529.92
                              541.09   593.59   595.98   605.18   612.57
                              632.39   654.22   664.68   687.48   690.99
                              746.62   791.87   802.80   847.99   852.54
                              883.51   924.02   952.40  1001.10  1010.04
                             1053.14  1073.38  1079.51  1105.57  1134.24
                             1136.97  1155.00  1209.61  1223.16  1275.62
                             1296.86  1338.01  1363.62  1406.43  1430.65
                             1463.99  1469.29  1499.43  1517.86  1572.52
                             1676.97  1763.37  1773.26  1790.12  1862.33
                             1904.84  1935.29  1965.68  1995.69  2041.79
                             2048.94  2088.88  2157.70  2417.06  2436.58
                             2456.37  2497.63  2513.52  2516.23  2518.20
                             2524.34  2546.51  2556.18  4328.89  4433.29
                             4512.69  4528.82  4554.63  4615.48  4624.08
                             4951.37  5103.08  5256.68  5274.43  5291.96
                             5326.53  5336.08  5392.18  5408.44  5465.68
                             5513.73

 Zero-point correction=                           0.296766 (Hartree/Particle)
 Thermal correction to Energy=                    0.324929
 Thermal correction to Enthalpy=                  0.325873
 Thermal correction to Gibbs Free Energy=         0.234881
 Sum of electronic and zero-point Energies=          -1219.211513
 Sum of electronic and thermal Energies=             -1219.183350
 Sum of electronic and thermal Enthalpies=           -1219.182406
 Sum of electronic and thermal Free Energies=        -1219.273398

                     E (Thermal)             CV                S
                      KCal/Mol        Cal/Mol-Kelvin    Cal/Mol-Kelvin
 Total                  203.896             98.505            191.509
 Electronic               0.000              0.000              0.000
 Translational            0.889              2.981             43.130
 Rotational               0.889              2.981             34.863
 Vibrational            202.119             92.543            113.516
 Vibration     1          0.593              1.986              7.017
 Vibration     2          0.593              1.985              6.294
 Vibration     3          0.593              1.984              6.037
 Vibration     4          0.593              1.984              5.924
 Vibration     5          0.594              1.981              5.237
 Vibration     6          0.595              1.978              4.845
 Vibration     7          0.596              1.976              4.653
 Vibration     8          0.598              1.968              4.141
 Vibration     9          0.599              1.966              4.028
 Vibration    10          0.600              1.963              3.887
 Vibration    11          0.601              1.959              3.740
 Vibration    12          0.602              1.956              3.644
 Vibration    13          0.604              1.950              3.483
 Vibration    14          0.608              1.937              3.185
 Vibration    15          0.615              1.913              2.797
 Vibration    16          0.618              1.904              2.693
 Vibration    17          0.622              1.890              2.535
 Vibration    18          0.627              1.873              2.378
 Vibration    19          0.631              1.862              2.292
 Vibration    20          0.631              1.862              2.292
 Vibration    21          0.638              1.838              2.123
 Vibration    22          0.642              1.826              2.047
 Vibration    23          0.649              1.803              1.920
 Vibration    24          0.655              1.785              1.831
 Vibration    25          0.666              1.751              1.683
 Vibration    26          0.678              1.717              1.556
 Vibration    27          0.687              1.690              1.466
 Vibration    28          0.723              1.588              1.194
 Vibration    29          0.724              1.585              1.188
 Vibration    30          0.741              1.537              1.087
 Vibration    31          0.747              1.521              1.055
 Vibration    32          0.776              1.443              0.918
 Vibration    33          0.778              1.439              0.912
 Vibration    34          0.783              1.425              0.890
 Vibration    35          0.788              1.414              0.873
 Vibration    36          0.800              1.384              0.828
 Vibration    37          0.813              1.350              0.782
 Vibration    38          0.820              1.334              0.760
 Vibration    39          0.834              1.299              0.716
 Vibration    40          0.837              1.294              0.709
 Vibration    41          0.874              1.208              0.612
 Vibration    42          0.906              1.139              0.543
 Vibration    43          0.914              1.122              0.528
 Vibration    44          0.947              1.054              0.468
 Vibration    45          0.950              1.048              0.463
 Vibration    46          0.973              1.002              0.426

 Normal termination of Gaussian 09 at Wed Feb  6 09:37:22 2019.
