 Gaussian 09, Revision D.01,
 Gaussian 09:  EM64L-G09RevD.01 24-Apr-2013

 ----------------------------------------------------------------------
 #p rb3lyp/6-31g(d,p) scrf=(iefpcm,solvent=water) geom=connectivity emp
 iricaldispersion=gd3
 ----------------------------------------------------------------------

 -------------------
 Title Card Required
 -------------------
 Symbolic Z-matrix:
 Charge = -2 Multiplicity = 1

                         Standard orientation:
 ---------------------------------------------------------------------
 Center     Atomic      Atomic             Coordinates (Angstroms)
 Number     Number       Type             X           Y           Z
 ---------------------------------------------------------------------
      1          6           0       -1.090640   -0.214478   -0.326192
      2          6           0       -0.482136    0.637630   -1.408189
      3          6           0       -1.054054    0.494825    1.006546
      4          6           0        0.269357    1.715608   -1.178591
      5          1           0       -0.683873    0.306497   -2.421416
      6          6           0       -2.592367   -0.604079   -0.668215
      7          6           0       -0.306418    1.578271    1.236499
      8          1           0       -1.627420    0.038436    1.806101
      9          6           0        0.598202    2.192516    0.202632
     10          1           0        0.716342    2.278853   -1.994412
     11          8           0       -3.031550   -0.252970   -1.786347
     12          8           0       -3.195605   -1.259118    0.232499
     13          1           0       -0.286173    2.028524    2.228665
     14          8           0        0.500283    3.656725    0.199323
     15          1           0        1.640255    1.921979    0.433029
     16          1           0        0.796259    3.944146    1.074067
     17          6           0       -0.310267   -1.585531   -0.243020
     18          6           0        0.955888   -1.491706    0.588832
     19          1           0       -0.060556   -1.909570   -1.256727
     20          1           0       -0.966129   -2.320187    0.226563
     21          6           0        2.251138   -1.026225   -0.114891
     22          8           0        0.950402   -1.803922    1.775023
     23          8           0        2.874661   -0.054835    0.392995
     24          8           0        2.537063   -1.707623   -1.134579
     25          8           0       -2.011481   -2.228736    2.646387
     26          1           0       -1.065003   -2.140885    2.447732
     27          1           0       -2.452870   -1.933169    1.821666
     28          8           0        5.713784   -0.657120    0.700961
     29          1           0        4.775916   -0.501884    0.914436
     30          1           0        5.648892   -0.653487   -0.271514
     31          8           0        4.662822   -0.163328   -1.939107
     32          1           0        3.995379   -0.886374   -1.843235
     33          1           0        4.271844    0.437491   -1.282388
     34          8           0       -2.241187    4.063283    0.881979
     35          1           0       -1.359430    4.048929    0.465679
     36          1           0       -2.460114    3.120987    0.871373
     37          8           0       -5.560035   -1.506500   -1.388853
     38          1           0       -4.872885   -0.989566   -1.853276
     39          1           0       -5.035914   -1.658559   -0.581046
 ---------------------------------------------------------------------

 SCF Done:  E(RB3LYP) =  -1219.73325004     A.U. after   13 cycles

 The electronic state is 1-A.
 Alpha  occ. eigenvalues --  -19.15649 -19.14673 -19.11802 -19.11521 -19.10816
 Alpha  occ. eigenvalues --  -19.10370 -19.10266 -19.10097 -19.09424 -19.09238
 Alpha  occ. eigenvalues --  -19.08956 -10.27785 -10.27112 -10.27011 -10.23625
 Alpha  occ. eigenvalues --  -10.20213 -10.18592 -10.18295 -10.18192 -10.18046
 Alpha  occ. eigenvalues --  -10.17901  -1.04751  -1.02232  -1.02138  -1.01918
 Alpha  occ. eigenvalues --   -0.97693  -0.97410  -0.96519  -0.96060  -0.95419
 Alpha  occ. eigenvalues --   -0.94395  -0.93398  -0.83920  -0.76714  -0.74264
 Alpha  occ. eigenvalues --   -0.69819  -0.63249  -0.59785  -0.58809  -0.52482
 Alpha  occ. eigenvalues --   -0.50701  -0.49775  -0.49134  -0.48826  -0.48231
 Alpha  occ. eigenvalues --   -0.47963  -0.47325  -0.46325  -0.45769  -0.45289
 Alpha  occ. eigenvalues --   -0.44222  -0.44095  -0.42983  -0.41538  -0.41264
 Alpha  occ. eigenvalues --   -0.40592  -0.39839  -0.39415  -0.38503  -0.37802
 Alpha  occ. eigenvalues --   -0.37480  -0.37259  -0.36111  -0.35982  -0.35486
 Alpha  occ. eigenvalues --   -0.35061  -0.34619  -0.33799  -0.31050  -0.29253
 Alpha  occ. eigenvalues --   -0.28724  -0.27926  -0.27619  -0.27072  -0.26670
 Alpha  occ. eigenvalues --   -0.26145  -0.25929  -0.25697  -0.25419  -0.24760
 Alpha  occ. eigenvalues --   -0.24448  -0.23075  -0.22595  -0.21157
 Alpha virt. eigenvalues --   -0.03278   0.01333   0.02049   0.05723   0.07487
 Alpha virt. eigenvalues --    0.09450   0.10963   0.11644   0.12561   0.13605
 Alpha virt. eigenvalues --    0.14763   0.15858   0.17293   0.18070   0.18615

 Mulliken charges:
               1
     1  C   -0.117328
     2  C   -0.039017
     3  C   -0.075000
     4  C   -0.105189
     5  H    0.093607
     6  C    0.587033
     7  C   -0.131605
     8  H    0.087803
     9  C    0.094030
    10  H    0.094388
    11  O   -0.610215
    12  O   -0.626647
    13  H    0.099192
    14  O   -0.574897
    15  H    0.141120
    16  H    0.332307
    17  C   -0.247231
    18  C    0.400849
    19  H    0.126037
    20  H    0.110375
    21  C    0.534765
    22  O   -0.502593
    23  O   -0.609005
    24  O   -0.608822
    25  O   -0.727670
    26  H    0.313270
    27  H    0.338906
    28  O   -0.723070
    29  H    0.310939
    30  H    0.294109
    31  O   -0.683129
    32  H    0.321445
    33  H    0.303589
    34  O   -0.699340
    35  H    0.318322
    36  H    0.304454
    37  O   -0.724535
    38  H    0.299603
    39  H    0.299150
 Sum of Mulliken charges =  -2.00000

 Dipole moment (field-independent basis, Debye):
    X=              3.0275    Y=              6.1534    Z=              0.8007  Tot=              6.9045
 Quadrupole moment (field-independent basis, Debye-Ang):
   XX=           -298.9660   YY=           -165.8727   ZZ=           -158.0525
   XY=              3.8821   XZ=             -5.1909   YZ=              8.3701

 Normal termination of Gaussian 09 at Wed Feb  6 11:38:59 2019.
