 Gaussian 09, Revision D.01,
 Gaussian 09:  EM64L-G09RevD.01 24-Apr-2013

 ------------------------------------------------------------------
 #p rb3lyp/6-311+g(2d,2p) geom=connectivity empiricaldispersion=gd3
 ------------------------------------------------------------------

 -------------------
 Title Card Required
 -------------------
 Symbolic Z-matrix:
 Charge = -2 Multiplicity = 1

                         Standard orientation:
 ---------------------------------------------------------------------
 Center     Atomic      Atomic             Coordinates (Angstroms)
 Number     Number       Type             X           Y           Z
 ---------------------------------------------------------------------
      1          6           0       -1.090640   -0.214478   -0.326192
      2          6           0       -0.482136    0.637630   -1.408189
      3          6           0       -1.054054    0.494825    1.006546
      4          6           0        0.269357    1.715608   -1.178591
      5          1           0       -0.683873    0.306497   -2.421416
      6          6           0       -2.592367   -0.604079   -0.668215
      7          6           0       -0.306418    1.578271    1.236499
      8          1           0       -1.627420    0.038436    1.806101
      9          6           0        0.598202    2.192516    0.202632
     10          1           0        0.716342    2.278853   -1.994412
     11          8           0       -3.031550   -0.252970   -1.786347
     12          8           0       -3.195605   -1.259118    0.232499
     13          1           0       -0.286173    2.028524    2.228665
     14          8           0        0.500283    3.656725    0.199323
     15          1           0        1.640255    1.921979    0.433029
     16          1           0        0.796259    3.944146    1.074067
     17          6           0       -0.310267   -1.585531   -0.243020
     18          6           0        0.955888   -1.491706    0.588832
     19          1           0       -0.060556   -1.909570   -1.256727
     20          1           0       -0.966129   -2.320187    0.226563
     21          6           0        2.251138   -1.026225   -0.114891
     22          8           0        0.950402   -1.803922    1.775023
     23          8           0        2.874661   -0.054835    0.392995
     24          8           0        2.537063   -1.707623   -1.134579
     25          8           0       -2.011481   -2.228736    2.646387
     26          1           0       -1.065003   -2.140885    2.447732
     27          1           0       -2.452870   -1.933169    1.821666
     28          8           0        5.713784   -0.657120    0.700961
     29          1           0        4.775916   -0.501884    0.914436
     30          1           0        5.648892   -0.653487   -0.271514
     31          8           0        4.662822   -0.163328   -1.939107
     32          1           0        3.995379   -0.886374   -1.843235
     33          1           0        4.271844    0.437491   -1.282388
     34          8           0       -2.241187    4.063283    0.881979
     35          1           0       -1.359430    4.048929    0.465679
     36          1           0       -2.460114    3.120987    0.871373
     37          8           0       -5.560035   -1.506500   -1.388853
     38          1           0       -4.872885   -0.989566   -1.853276
     39          1           0       -5.035914   -1.658559   -0.581046
 ---------------------------------------------------------------------

 SCF Done:  E(RB3LYP) =  -1219.98904452     A.U. after   15 cycles

 The electronic state is 1-A.
 Alpha  occ. eigenvalues --  -18.96726 -18.93053 -18.92617 -18.90810 -18.90028
 Alpha  occ. eigenvalues --  -18.89442 -18.88554 -18.88516 -18.88164 -18.87144
 Alpha  occ. eigenvalues --  -18.87019 -10.06999 -10.06398 -10.06253 -10.04611
 Alpha  occ. eigenvalues --  -10.00347  -9.98675  -9.98514  -9.98228  -9.98224
 Alpha  occ. eigenvalues --   -9.98099  -0.85909  -0.85836  -0.83427  -0.83269
 Alpha  occ. eigenvalues --   -0.81710  -0.79731  -0.78409  -0.78044  -0.77141
 Alpha  occ. eigenvalues --   -0.75719  -0.74570  -0.66006  -0.58677  -0.56451
 Alpha  occ. eigenvalues --   -0.51678  -0.45259  -0.41422  -0.40984  -0.34586
 Alpha  occ. eigenvalues --   -0.33829  -0.33392  -0.31427  -0.30517  -0.30413
 Alpha  occ. eigenvalues --   -0.29854  -0.29589  -0.28271  -0.27468  -0.27191
 Alpha  occ. eigenvalues --   -0.25935  -0.25582  -0.24611  -0.23564  -0.23303
 Alpha  occ. eigenvalues --   -0.22538  -0.22142  -0.21190  -0.20874  -0.20330
 Alpha  occ. eigenvalues --   -0.19988  -0.19757  -0.18888  -0.18028  -0.17803
 Alpha  occ. eigenvalues --   -0.17068  -0.16542  -0.15456  -0.13632  -0.12871
 Alpha  occ. eigenvalues --   -0.11717  -0.10703  -0.10385  -0.09670  -0.09120
 Alpha  occ. eigenvalues --   -0.08239  -0.08198  -0.07695  -0.07092  -0.06114
 Alpha  occ. eigenvalues --   -0.05859  -0.04560  -0.04218  -0.02743
 Alpha virt. eigenvalues --    0.14928   0.15432   0.18203   0.18677   0.19471
 Alpha virt. eigenvalues --    0.19514   0.20161   0.21377   0.21600   0.22211
 Alpha virt. eigenvalues --    0.22517   0.23410   0.23708   0.24332   0.25039

 Mulliken charges:
               1
     1  C    1.137077
     2  C   -0.202642
     3  C   -0.500185
     4  C   -0.178313
     5  H    0.094576
     6  C    0.204449
     7  C   -0.502042
     8  H    0.131879
     9  C    0.252912
    10  H    0.064836
    11  O   -0.604241
    12  O   -0.657658
    13  H    0.062639
    14  O   -0.461063
    15  H    0.137213
    16  H    0.222190
    17  C   -0.366853
    18  C    0.365824
    19  H    0.119722
    20  H    0.125225
    21  C    0.121795
    22  O   -0.419653
    23  O   -0.633033
    24  O   -0.505830
    25  O   -0.602056
    26  H    0.272497
    27  H    0.335831
    28  O   -0.617684
    29  H    0.312886
    30  H    0.285602
    31  O   -0.551233
    32  H    0.283569
    33  H    0.267467
    34  O   -0.575186
    35  H    0.317249
    36  H    0.272734
    37  O   -0.568351
    38  H    0.271724
    39  H    0.286126
 Sum of Mulliken charges =  -2.00000

 Dipole moment (field-independent basis, Debye):
    X=              2.3799    Y=              4.8412    Z=              0.6799  Tot=              5.4373
 Quadrupole moment (field-independent basis, Debye-Ang):
   XX=           -304.5191   YY=           -178.0716   ZZ=           -166.4596
   XY=              2.7969   XZ=             -5.0614   YZ=              7.6649

 Normal termination of Gaussian 09 at Wed Feb  6 11:20:58 2019.
